<?xml version="1.0" encoding="ISO-8859-1"?>
<modeling>
 <generator>
  <i name="program" type="string">vasp </i>
  <i name="version" type="string">5.4.4.18Apr17-6-g9f103f2a35  </i>
  <i name="subversion" type="string">(build Jun 07 2020 16:50:00) complex            parallel </i>
  <i name="platform" type="string">LinuxIFC </i>
  <i name="date" type="string">2023 02 15 </i>
  <i name="time" type="string">02:40:25 </i>
 </generator>
 <incar>
  <i type="string" name="SYSTEM">Simulation for cell shape cell volume r</i>
  <i type="int" name="ISTART">     1</i>
  <i type="string" name="PREC">high</i>
  <i type="string" name="ALGO">48</i>
  <i type="int" name="ICHARG">    11</i>
  <i type="int" name="NELM">   200</i>
  <i type="int" name="IBRION">    -1</i>
  <i name="EDIFF">      0.00001000</i>
  <i name="EDIFFG">     -0.01000000</i>
  <i type="int" name="NSW">     0</i>
  <i type="int" name="ISIF">     2</i>
  <i name="ENCUT">    500.00000000</i>
  <i name="POTIM">      0.30000000</i>
  <i type="string" name="LREAL">A</i>
  <i type="int" name="ISMEAR">     0</i>
  <i name="SIGMA">      0.01000000</i>
  <i type="int" name="NWRITE">     0</i>
  <i type="logical" name="LWAVE"> F  </i>
  <i type="logical" name="LCHARG"> F  </i>
  <v type="int" name="KPOINT_BSE">    -1     0     0     0</v>
  <i type="int" name="NELM">   200</i>
  <i type="string" name="GGA">PE</i>
 </incar>
 <structure name="primitive_cell" >
  <crystal>
   <varray name="basis" >
    <v>      21.81906973      -0.02952961       0.00000000 </v>
    <v>     -10.93507750      18.94264315       0.00000000 </v>
    <v>       0.00000000       0.00000000      20.00000000 </v>
   </varray>
   <i name="volume">   8259.75886293 </i>
   <varray name="rec_basis" >
    <v>       0.04586730       0.02647796       0.00000000 </v>
    <v>       0.00007150       0.05283222       0.00000000 </v>
    <v>       0.00000000       0.00000000       0.05000000 </v>
   </varray>
  </crystal>
  <varray name="positions" >
   <v>       0.08944802      -0.46387284      -0.49637744 </v>
   <v>       0.04951077       0.46175958      -0.48882937 </v>
   <v>       0.05606701      -0.42292428       0.49620762 </v>
   <v>       0.16686801      -0.43163802      -0.49753932 </v>
   <v>       0.18853683      -0.46014951       0.47464729 </v>
   <v>      -0.01832184      -0.45755013       0.49767034 </v>
   <v>       0.20923761      -0.37339757      -0.46754004 </v>
   <v>      -0.02492491       0.42683337      -0.48951881 </v>
   <v>       0.08602783       0.41942427      -0.47687671 </v>
   <v>       0.09732831      -0.34415717       0.48483813 </v>
   <v>       0.14142029       0.45227375      -0.46161584 </v>
   <v>       0.15134454      -0.32604724       0.46779331 </v>
   <v>      -0.05841443       0.46786240      -0.49586756 </v>
   <v>       0.10235849      -0.31503997      -0.46863753 </v>
   <v>       0.08488260       0.38959088       0.47825464 </v>
   <v>       0.05920553       0.38038855      -0.43699069 </v>
   <v>       0.07063962      -0.32826911       0.44797260 </v>
   <v>       0.28151647      -0.35081842      -0.46910432 </v>
   <v>      -0.05447331      -0.41390928       0.49496061 </v>
   <v>      -0.06589966       0.34733816      -0.48492521 </v>
   <v>      -0.02398336      -0.36445754      -0.47704566 </v>
   <v>      -0.03852965       0.32420574       0.48815749 </v>
   <v>       0.30202780      -0.39956780      -0.46905743 </v>
   <v>      -0.13568620       0.43579677      -0.49739151 </v>
   <v>      -0.07173978       0.32966416      -0.43254094 </v>
   <v>      -0.05891756      -0.39902410       0.44325570 </v>
   <v>      -0.10776465      -0.44124989      -0.48343501 </v>
   <v>      -0.11970096       0.32485887       0.49550695 </v>
   <v>       0.32513614      -0.28047388      -0.46788668 </v>
   <v>      -0.15707432       0.46149913       0.47025628 </v>
   <v>      -0.17861476       0.38104129      -0.46315721 </v>
   <v>       0.37253081      -0.37266166      -0.46947896 </v>
   <v>       0.39458117      -0.25997356      -0.46862031 </v>
   <v>       0.39503856      -0.42217792      -0.46800098 </v>
   <v>       0.42149788      -0.30338324      -0.46856505 </v>
   <v>       0.37820038      -0.16741413       0.47516105 </v>
   <v>      -0.25044669       0.35969395      -0.46537424 </v>
   <v>       0.34698934       0.47258237       0.46764076 </v>
   <v>       0.33697058      -0.12111010      -0.46102299 </v>
   <v>      -0.26919316       0.40973777      -0.46482861 </v>
   <v>       0.44426277      -0.18790040      -0.46665162 </v>
   <v>       0.33571965       0.41246613      -0.46893379 </v>
   <v>       0.42833977      -0.14568388      -0.49674495 </v>
   <v>       0.36493792       0.43664220       0.48455499 </v>
   <v>      -0.29542975       0.28952191      -0.46488824 </v>
   <v>       0.45337159      -0.40632642      -0.49792096 </v>
   <v>       0.33038642      -0.06482244       0.47900039 </v>
   <v>       0.48218560      -0.35614760       0.47428590 </v>
   <v>       0.35926013      -0.06585670      -0.47617542 </v>
   <v>       0.34878176       0.39410431       0.44763028 </v>
   <v>       0.34680571      -0.03935388      -0.43619362 </v>
   <v>      -0.33953244       0.38435344      -0.46513210 </v>
   <v>       0.44388737       0.47406716       0.49592546 </v>
   <v>       0.48528326      -0.45161568      -0.49670975 </v>
   <v>       0.47328644      -0.06841855      -0.49548767 </v>
   <v>      -0.36442657       0.27074138      -0.46504946 </v>
   <v>       0.43833225      -0.02897832      -0.48810447 </v>
   <v>      -0.30355943      -0.45011843       0.49656226 </v>
   <v>      -0.30692403       0.12929615      -0.48290824 </v>
   <v>      -0.35566691       0.17777694       0.47088535 </v>
   <v>      -0.36063052       0.43483959      -0.46289285 </v>
   <v>      -0.44989158      -0.12973813       0.47002325 </v>
   <v>      -0.38983877       0.31550386      -0.46449435 </v>
   <v>      -0.43001162      -0.31573968      -0.46230979 </v>
   <v>       0.38483249       0.33563910      -0.47646052 </v>
   <v>      -0.30839660      -0.40594598      -0.43234994 </v>
   <v>      -0.31337878       0.08018531       0.44410620 </v>
   <v>      -0.32593111      -0.41851137      -0.48473584 </v>
   <v>      -0.33272532       0.07600109       0.49579581 </v>
   <v>      -0.45217746      -0.03470333       0.49721969 </v>
   <v>      -0.41492867       0.19905662      -0.46257720 </v>
   <v>      -0.40285462       0.15630748      -0.49672857 </v>
   <v>      -0.30244374      -0.36836757       0.48772160 </v>
   <v>       0.47819765       0.43417734       0.49751900 </v>
   <v>      -0.44020858      -0.41733945      -0.48907633 </v>
   <v>      -0.41411300      -0.07547821       0.48620769 </v>
   <v>      -0.31344823       0.04594862      -0.47596962 </v>
   <v>       0.38789579       0.05810224       0.48854226 </v>
   <v>      -0.41529843       0.42319381      -0.49728479 </v>
   <v>       0.47752151       0.04529003      -0.48886674 </v>
   <v>       0.43394715       0.35441543       0.49484762 </v>
   <v>      -0.39734662      -0.33849286      -0.47720311 </v>
   <v>       0.41813298       0.33515508       0.44323258 </v>
   <v>      -0.38925520      -0.07941646      -0.46729196 </v>
   <v>      -0.44111659       0.37622535       0.47019683 </v>
   <v>       0.43843687       0.08570873      -0.48444252 </v>
   <v>      -0.36703830      -0.30993308       0.47801868 </v>
   <v>       0.42636236       0.09140201      -0.43209905 </v>
   <v>      -0.37187284      -0.04915448       0.44887719 </v>
   <v>      -0.40559359      -0.45697908      -0.48955607 </v>
   <v>      -0.41272886       0.03954478       0.49853462 </v>
   <v>      -0.35850698      -0.32635724      -0.43707236 </v>
   <v>      -0.44706362       0.46851031      -0.49587627 </v>
   <v>      -0.44774680       0.07915542      -0.49513748 </v>
   <v>       0.46128228       0.32826697      -0.48425360 </v>
   <v>       0.46957598       0.13940326       0.49598675 </v>
  </varray>
 </structure>
 <varray name="primitive_index" >
  <v type="int" >        1 </v>
  <v type="int" >        2 </v>
  <v type="int" >        5 </v>
  <v type="int" >        4 </v>
  <v type="int" >       46 </v>
  <v type="int" >       40 </v>
  <v type="int" >       85 </v>
  <v type="int" >       29 </v>
  <v type="int" >        3 </v>
  <v type="int" >        6 </v>
  <v type="int" >       43 </v>
  <v type="int" >       47 </v>
  <v type="int" >       39 </v>
  <v type="int" >       49 </v>
  <v type="int" >       45 </v>
  <v type="int" >       44 </v>
  <v type="int" >       48 </v>
  <v type="int" >        7 </v>
  <v type="int" >       41 </v>
  <v type="int" >       30 </v>
  <v type="int" >       82 </v>
  <v type="int" >       70 </v>
  <v type="int" >       87 </v>
  <v type="int" >       42 </v>
  <v type="int" >       71 </v>
  <v type="int" >       83 </v>
  <v type="int" >       81 </v>
  <v type="int" >       72 </v>
  <v type="int" >       86 </v>
  <v type="int" >       84 </v>
  <v type="int" >       94 </v>
  <v type="int" >        8 </v>
  <v type="int" >       11 </v>
  <v type="int" >       89 </v>
  <v type="int" >       88 </v>
  <v type="int" >       53 </v>
  <v type="int" >       22 </v>
  <v type="int" >       62 </v>
  <v type="int" >       50 </v>
  <v type="int" >       93 </v>
  <v type="int" >       90 </v>
  <v type="int" >       56 </v>
  <v type="int" >       16 </v>
  <v type="int" >       10 </v>
  <v type="int" >       91 </v>
  <v type="int" >       18 </v>
  <v type="int" >       52 </v>
  <v type="int" >       69 </v>
  <v type="int" >        9 </v>
  <v type="int" >       55 </v>
  <v type="int" >       51 </v>
  <v type="int" >       24 </v>
  <v type="int" >       20 </v>
  <v type="int" >       17 </v>
  <v type="int" >       12 </v>
  <v type="int" >       23 </v>
  <v type="int" >       13 </v>
  <v type="int" >       65 </v>
  <v type="int" >       73 </v>
  <v type="int" >       79 </v>
  <v type="int" >       95 </v>
  <v type="int" >       76 </v>
  <v type="int" >       92 </v>
  <v type="int" >       66 </v>
  <v type="int" >       54 </v>
  <v type="int" >       64 </v>
  <v type="int" >       75 </v>
  <v type="int" >       27 </v>
  <v type="int" >       34 </v>
  <v type="int" >       33 </v>
  <v type="int" >       96 </v>
  <v type="int" >       36 </v>
  <v type="int" >       63 </v>
  <v type="int" >       19 </v>
  <v type="int" >       25 </v>
  <v type="int" >       35 </v>
  <v type="int" >       74 </v>
  <v type="int" >       57 </v>
  <v type="int" >       38 </v>
  <v type="int" >       14 </v>
  <v type="int" >       21 </v>
  <v type="int" >       28 </v>
  <v type="int" >       61 </v>
  <v type="int" >       78 </v>
  <v type="int" >       80 </v>
  <v type="int" >       15 </v>
  <v type="int" >       68 </v>
  <v type="int" >       58 </v>
  <v type="int" >       77 </v>
  <v type="int" >       26 </v>
  <v type="int" >       32 </v>
  <v type="int" >       67 </v>
  <v type="int" >       37 </v>
  <v type="int" >       31 </v>
  <v type="int" >       60 </v>
  <v type="int" >       59 </v>
 </varray>
 <kpoints>
  <generation param="listgenerated">
   <i name="divisions" type="int">      20 </i>
   <v>       0.00000000       0.00000000       0.00000000 </v>
   <v>       0.50000000       0.00000000       0.00000000 </v>
   <v>       0.33333333       0.33333333       0.00000000 </v>
   <v>       0.00000000       0.00000000       0.00000000 </v>
  </generation>
  <varray name="kpointlist" >
   <v>       0.00000000       0.00000000       0.00000000 </v>
   <v>       0.02631579       0.00000000       0.00000000 </v>
   <v>       0.05263158       0.00000000       0.00000000 </v>
   <v>       0.07894737       0.00000000       0.00000000 </v>
   <v>       0.10526316       0.00000000       0.00000000 </v>
   <v>       0.13157895       0.00000000       0.00000000 </v>
   <v>       0.15789474       0.00000000       0.00000000 </v>
   <v>       0.18421053       0.00000000       0.00000000 </v>
   <v>       0.21052632       0.00000000       0.00000000 </v>
   <v>       0.23684211       0.00000000       0.00000000 </v>
   <v>       0.26315789       0.00000000       0.00000000 </v>
   <v>       0.28947368       0.00000000       0.00000000 </v>
   <v>       0.31578947       0.00000000       0.00000000 </v>
   <v>       0.34210526       0.00000000       0.00000000 </v>
   <v>       0.36842105       0.00000000       0.00000000 </v>
   <v>       0.39473684       0.00000000       0.00000000 </v>
   <v>       0.42105263       0.00000000       0.00000000 </v>
   <v>       0.44736842       0.00000000       0.00000000 </v>
   <v>       0.47368421       0.00000000       0.00000000 </v>
   <v>       0.50000000       0.00000000       0.00000000 </v>
   <v>       0.50000000       0.00000000       0.00000000 </v>
   <v>       0.49122807       0.01754386       0.00000000 </v>
   <v>       0.48245614       0.03508772       0.00000000 </v>
   <v>       0.47368421       0.05263158       0.00000000 </v>
   <v>       0.46491228       0.07017544       0.00000000 </v>
   <v>       0.45614035       0.08771930       0.00000000 </v>
   <v>       0.44736842       0.10526316       0.00000000 </v>
   <v>       0.43859649       0.12280702       0.00000000 </v>
   <v>       0.42982456       0.14035088       0.00000000 </v>
   <v>       0.42105263       0.15789474       0.00000000 </v>
   <v>       0.41228070       0.17543860       0.00000000 </v>
   <v>       0.40350877       0.19298246       0.00000000 </v>
   <v>       0.39473684       0.21052632       0.00000000 </v>
   <v>       0.38596491       0.22807018       0.00000000 </v>
   <v>       0.37719298       0.24561404       0.00000000 </v>
   <v>       0.36842105       0.26315789       0.00000000 </v>
   <v>       0.35964912       0.28070175       0.00000000 </v>
   <v>       0.35087719       0.29824561       0.00000000 </v>
   <v>       0.34210526       0.31578947       0.00000000 </v>
   <v>       0.33333333       0.33333333       0.00000000 </v>
   <v>       0.33333333       0.33333333       0.00000000 </v>
   <v>       0.31578947       0.31578947       0.00000000 </v>
   <v>       0.29824561       0.29824561       0.00000000 </v>
   <v>       0.28070175       0.28070175       0.00000000 </v>
   <v>       0.26315789       0.26315789       0.00000000 </v>
   <v>       0.24561404       0.24561404       0.00000000 </v>
   <v>       0.22807018       0.22807018       0.00000000 </v>
   <v>       0.21052632       0.21052632       0.00000000 </v>
   <v>       0.19298246       0.19298246       0.00000000 </v>
   <v>       0.17543860       0.17543860       0.00000000 </v>
   <v>       0.15789474       0.15789474       0.00000000 </v>
   <v>       0.14035088       0.14035088       0.00000000 </v>
   <v>       0.12280702       0.12280702       0.00000000 </v>
   <v>       0.10526316       0.10526316       0.00000000 </v>
   <v>       0.08771930       0.08771930       0.00000000 </v>
   <v>       0.07017544       0.07017544       0.00000000 </v>
   <v>       0.05263158       0.05263158       0.00000000 </v>
   <v>       0.03508772       0.03508772       0.00000000 </v>
   <v>       0.01754386       0.01754386       0.00000000 </v>
   <v>       0.00000000       0.00000000       0.00000000 </v>
  </varray>
  <varray name="weights" >
   <v>       0.01666667 </v>
   <v>       0.01666667 </v>
   <v>       0.01666667 </v>
   <v>       0.01666667 </v>
   <v>       0.01666667 </v>
   <v>       0.01666667 </v>
   <v>       0.01666667 </v>
   <v>       0.01666667 </v>
   <v>       0.01666667 </v>
   <v>       0.01666667 </v>
   <v>       0.01666667 </v>
   <v>       0.01666667 </v>
   <v>       0.01666667 </v>
   <v>       0.01666667 </v>
   <v>       0.01666667 </v>
   <v>       0.01666667 </v>
   <v>       0.01666667 </v>
   <v>       0.01666667 </v>
   <v>       0.01666667 </v>
   <v>       0.01666667 </v>
   <v>       0.01666667 </v>
   <v>       0.01666667 </v>
   <v>       0.01666667 </v>
   <v>       0.01666667 </v>
   <v>       0.01666667 </v>
   <v>       0.01666667 </v>
   <v>       0.01666667 </v>
   <v>       0.01666667 </v>
   <v>       0.01666667 </v>
   <v>       0.01666667 </v>
   <v>       0.01666667 </v>
   <v>       0.01666667 </v>
   <v>       0.01666667 </v>
   <v>       0.01666667 </v>
   <v>       0.01666667 </v>
   <v>       0.01666667 </v>
   <v>       0.01666667 </v>
   <v>       0.01666667 </v>
   <v>       0.01666667 </v>
   <v>       0.01666667 </v>
   <v>       0.01666667 </v>
   <v>       0.01666667 </v>
   <v>       0.01666667 </v>
   <v>       0.01666667 </v>
   <v>       0.01666667 </v>
   <v>       0.01666667 </v>
   <v>       0.01666667 </v>
   <v>       0.01666667 </v>
   <v>       0.01666667 </v>
   <v>       0.01666667 </v>
   <v>       0.01666667 </v>
   <v>       0.01666667 </v>
   <v>       0.01666667 </v>
   <v>       0.01666667 </v>
   <v>       0.01666667 </v>
   <v>       0.01666667 </v>
   <v>       0.01666667 </v>
   <v>       0.01666667 </v>
   <v>       0.01666667 </v>
   <v>       0.01666667 </v>
  </varray>
 </kpoints>
 <parameters>
  <separator name="general" >
   <i type="string" name="SYSTEM">Simulation for cell shape cell volume r</i>
   <i type="logical" name="LCOMPAT"> F  </i>
  </separator>
  <separator name="electronic" >
   <i type="string" name="PREC">high</i>
   <i name="ENMAX">    500.00000000</i>
   <i name="ENAUG">    644.87300000</i>
   <i name="EDIFF">      0.00001000</i>
   <i type="int" name="IALGO">    38</i>
   <i type="int" name="IWAVPR">    10</i>
   <i type="int" name="NBANDS">   192</i>
   <i name="NELECT">    270.00000000</i>
   <i type="int" name="TURBO">     0</i>
   <i type="int" name="IRESTART">     0</i>
   <i type="int" name="NREBOOT">     0</i>
   <i type="int" name="NMIN">     0</i>
   <i name="EREF">      0.00000000</i>
   <separator name="electronic smearing" >
    <i type="int" name="ISMEAR">     0</i>
    <i name="SIGMA">      0.01000000</i>
    <i name="KSPACING">      0.50000000</i>
    <i type="logical" name="KGAMMA"> T  </i>
   </separator>
   <separator name="electronic projectors" >
    <i type="logical" name="LREAL"> T  </i>
    <v name="ROPT">     -0.00040000     -0.00040000     -0.00040000</v>
    <i type="int" name="LMAXPAW">  -100</i>
    <i type="int" name="LMAXMIX">     2</i>
    <i type="logical" name="NLSPLINE"> F  </i>
   </separator>
   <separator name="electronic startup" >
    <i type="int" name="ISTART">     1</i>
    <i type="int" name="ICHARG">    11</i>
    <i type="int" name="INIWAV">     1</i>
   </separator>
   <separator name="electronic spin" >
    <i type="int" name="ISPIN">     1</i>
    <i type="logical" name="LNONCOLLINEAR"> F  </i>
    <v name="MAGMOM">      1.00000000      1.00000000      1.00000000      1.00000000      1.00000000      1.00000000      1.00000000      1.00000000      1.00000000      1.00000000      1.00000000      1.00000000      1.00000000      1.00000000      1.00000000      1.00000000      1.00000000      1.00000000      1.00000000      1.00000000
      1.00000000      1.00000000      1.00000000      1.00000000      1.00000000      1.00000000      1.00000000      1.00000000      1.00000000      1.00000000      1.00000000      1.00000000      1.00000000      1.00000000      1.00000000      1.00000000      1.00000000      1.00000000      1.00000000      1.00000000
      1.00000000      1.00000000      1.00000000      1.00000000      1.00000000      1.00000000      1.00000000      1.00000000      1.00000000      1.00000000      1.00000000      1.00000000      1.00000000      1.00000000      1.00000000      1.00000000      1.00000000      1.00000000      1.00000000      1.00000000
      1.00000000      1.00000000      1.00000000      1.00000000      1.00000000      1.00000000      1.00000000      1.00000000      1.00000000      1.00000000      1.00000000      1.00000000      1.00000000      1.00000000      1.00000000      1.00000000      1.00000000      1.00000000      1.00000000      1.00000000
      1.00000000      1.00000000      1.00000000      1.00000000      1.00000000      1.00000000      1.00000000      1.00000000      1.00000000      1.00000000      1.00000000      1.00000000      1.00000000      1.00000000      1.00000000      1.00000000</v>
    <i name="NUPDOWN">     -1.00000000</i>
    <i type="logical" name="LSORBIT"> F  </i>
    <v name="SAXIS">      0.00000000      0.00000000      1.00000000</v>
    <i type="logical" name="LSPIRAL"> F  </i>
    <v name="QSPIRAL">      0.00000000      0.00000000      0.00000000</v>
    <i type="logical" name="LZEROZ"> F  </i>
   </separator>
   <separator name="electronic exchange-correlation" >
    <i type="logical" name="LASPH"> F  </i>
    <i type="logical" name="LMETAGGA"> F  </i>
   </separator>
   <separator name="electronic convergence" >
    <i type="int" name="NELM">   200</i>
    <i type="int" name="NELMDL">     0</i>
    <i type="int" name="NELMIN">     2</i>
    <i name="ENINI">    500.00000000</i>
    <separator name="electronic convergence detail" >
     <i type="logical" name="LDIAG"> T  </i>
     <i type="logical" name="LSUBROT"> F  </i>
     <i name="WEIMIN">      0.00000000</i>
     <i name="EBREAK">      0.00000001</i>
     <i name="DEPER">      0.30000000</i>
     <i type="int" name="NRMM">     4</i>
     <i name="TIME">      0.40000000</i>
    </separator>
   </separator>
   <separator name="electronic mixer" >
    <i name="AMIX">      0.40000000</i>
    <i name="BMIX">      1.00000000</i>
    <i name="AMIN">      0.10000000</i>
    <i name="AMIX_MAG">      1.60000000</i>
    <i name="BMIX_MAG">      1.00000000</i>
    <separator name="electronic mixer details" >
     <i type="int" name="IMIX">     4</i>
     <i type="logical" name="MIXFIRST"> F  </i>
     <i type="int" name="MAXMIX">   -45</i>
     <i name="WC">    100.00000000</i>
     <i type="int" name="INIMIX">     1</i>
     <i type="int" name="MIXPRE">     1</i>
     <i type="int" name="MREMOVE">     5</i>
    </separator>
   </separator>
   <separator name="electronic dipolcorrection" >
    <i type="logical" name="LDIPOL"> F  </i>
    <i type="logical" name="LMONO"> F  </i>
    <i type="int" name="IDIPOL">     0</i>
    <i name="EPSILON">      1.00000000</i>
    <v name="DIPOL">   -100.00000000   -100.00000000   -100.00000000</v>
    <i name="EFIELD">      0.00000000</i>
   </separator>
  </separator>
  <separator name="grids" >
   <i type="int" name="NGX">   160</i>
   <i type="int" name="NGY">   160</i>
   <i type="int" name="NGZ">   150</i>
   <i type="int" name="NGXF">   240</i>
   <i type="int" name="NGYF">   250</i>
   <i type="int" name="NGZF">   224</i>
   <i type="logical" name="ADDGRID"> F  </i>
  </separator>
  <separator name="ionic" >
   <i type="int" name="NSW">     0</i>
   <i type="int" name="IBRION">    -1</i>
   <i type="int" name="MDALGO">     0</i>
   <i type="int" name="ISIF">     2</i>
   <i name="PSTRESS">      0.00000000</i>
   <i name="EDIFFG">     -0.01000000</i>
   <i type="int" name="NFREE">     0</i>
   <i name="POTIM">      0.30000000</i>
   <i name="SMASS">     -3.00000000</i>
   <i name="SCALEE">      1.00000000</i>
  </separator>
  <separator name="ionic md" >
   <i name="TEBEG">      0.00010000</i>
   <i name="TEEND">      0.00010000</i>
   <i type="int" name="NBLOCK">     1</i>
   <i type="int" name="KBLOCK">     1</i>
   <i type="int" name="NPACO">   256</i>
   <i name="APACO">     16.00000000</i>
  </separator>
  <separator name="symmetry" >
   <i type="int" name="ISYM">     2</i>
   <i name="SYMPREC">      0.00001000</i>
  </separator>
  <separator name="dos" >
   <i type="int" name="LORBIT">     0</i>
   <v name="RWIGS">     -1.00000000     -1.00000000     -1.00000000</v>
   <i type="int" name="NEDOS">   301</i>
   <i name="EMIN">     10.00000000</i>
   <i name="EMAX">    -10.00000000</i>
   <i name="EFERMI">      0.00000000</i>
  </separator>
  <separator name="writing" >
   <i type="int" name="NWRITE">     0</i>
   <i type="logical" name="LWAVE"> F  </i>
   <i type="logical" name="LDOWNSAMPLE"> F  </i>
   <i type="logical" name="LCHARG"> F  </i>
   <i type="logical" name="LPARD"> F  </i>
   <i type="logical" name="LVTOT"> F  </i>
   <i type="logical" name="LVHAR"> F  </i>
   <i type="logical" name="LELF"> F  </i>
   <i type="logical" name="LOPTICS"> F  </i>
   <v name="STM">      0.00000000      0.00000000      0.00000000      0.00000000      0.00000000      0.00000000      0.00000000</v>
  </separator>
  <separator name="performance" >
   <i type="int" name="NPAR">    16</i>
   <i type="int" name="NSIM">     4</i>
   <i type="int" name="NBLK">    -1</i>
   <i type="logical" name="LPLANE"> T  </i>
   <i type="logical" name="LSCALAPACK"> T  </i>
   <i type="logical" name="LSCAAWARE"> F  </i>
   <i type="logical" name="LSCALU"> F  </i>
   <i type="logical" name="LASYNC"> F  </i>
   <i type="logical" name="LORBITALREAL"> F  </i>
  </separator>
  <separator name="miscellaneous" >
   <i type="int" name="IDIOT">     3</i>
   <i type="int" name="ISPECIAL">     0</i>
   <i type="logical" name="LMUSIC"> F  </i>
   <v name="POMASS">     12.01100000      1.00000000     14.00100000</v>
   <v name="DARWINR">      0.00000000      0.00000000      0.00000000</v>
   <v name="DARWINV">      1.00000000      1.00000000      1.00000000</v>
   <i type="logical" name="LCORR"> T  </i>
  </separator>
  <i type="logical" name="GGA_COMPAT"> T  </i>
  <i type="logical" name="LBERRY"> F  </i>
  <i type="int" name="ICORELEVEL">     0</i>
  <i type="logical" name="LDAU"> F  </i>
  <i type="int" name="I_CONSTRAINED_M">     0</i>
  <separator name="electronic exchange-correlation" >
   <i type="string" name="GGA">PE</i>
   <i type="int" name="VOSKOWN">     0</i>
   <i type="logical" name="LHFCALC"> F  </i>
   <i type="string" name="PRECFOCK"></i>
   <i type="logical" name="LSYMGRAD"> F  </i>
   <i type="logical" name="LHFONE"> F  </i>
   <i type="logical" name="LRHFCALC"> F  </i>
   <i type="logical" name="LTHOMAS"> F  </i>
   <i type="logical" name="LMODELHF"> F  </i>
   <i name="ENCUT4O">     -1.00000000</i>
   <i type="int" name="EXXOEP">     0</i>
   <i type="int" name="FOURORBIT">     0</i>
   <i name="AEXX">      0.00000000</i>
   <i name="HFALPHA">      0.00000000</i>
   <i name="MCALPHA">      0.00000000</i>
   <i name="ALDAX">      1.00000000</i>
   <i name="AGGAX">      1.00000000</i>
   <i name="ALDAC">      1.00000000</i>
   <i name="AGGAC">      1.00000000</i>
   <i type="int" name="NKREDX">     1</i>
   <i type="int" name="NKREDY">     1</i>
   <i type="int" name="NKREDZ">     1</i>
   <i type="logical" name="SHIFTRED"> F  </i>
   <i type="logical" name="ODDONLY"> F  </i>
   <i type="logical" name="EVENONLY"> F  </i>
   <i type="int" name="LMAXFOCK">     0</i>
   <i type="int" name="NMAXFOCKAE">     0</i>
   <i type="logical" name="LFOCKAEDFT"> F  </i>
   <i name="HFSCREEN">      0.00000000</i>
   <i name="HFSCREENC">      0.00000000</i>
   <i type="int" name="NBANDSGWLOW">     0</i>
  </separator>
  <separator name="vdW DFT" >
   <i type="logical" name="LUSE_VDW"> F  </i>
   <i name="Zab_VDW">     -0.84910000</i>
   <i name="PARAM1">      0.12340000</i>
   <i name="PARAM2">      1.00000000</i>
   <i name="PARAM3">      0.00000000</i>
  </separator>
  <separator name="model GW" >
   <i type="int" name="MODEL_GW">     0</i>
   <i name="MODEL_EPS0">     51.62349289</i>
   <i name="MODEL_ALPHA">      1.00000000</i>
  </separator>
  <separator name="linear response parameters" >
   <i type="logical" name="LEPSILON"> F  </i>
   <i type="logical" name="LRPA"> F  </i>
   <i type="logical" name="LNABLA"> F  </i>
   <i type="logical" name="LVEL"> F  </i>
   <i type="int" name="KINTER">     0</i>
   <i name="CSHIFT">      0.10000000</i>
   <i name="OMEGAMAX">     -1.00000000</i>
   <i name="DEG_THRESHOLD">      0.00200000</i>
   <i name="RTIME">     -0.10000000</i>
   <i name="WPLASMAI">      0.00000000</i>
   <v name="DFIELD">      0.00000000      0.00000000      0.00000000</v>
   <v name="WPLASMA">      0.00000000      0.00000000      0.00000000      0.00000000      0.00000000      0.00000000      0.00000000      0.00000000      0.00000000</v>
  </separator>
  <separator name="orbital magnetization" >
   <i type="logical" name="NUCIND"> F  </i>
   <v name="MAGPOS">      0.00000000      0.00000000      0.00000000</v>
   <i type="logical" name="LNICSALL"> T  </i>
   <i type="logical" name="ORBITALMAG"> F  </i>
   <i type="logical" name="LMAGBLOCH"> F  </i>
   <i type="logical" name="LCHIMAG"> F  </i>
   <i type="logical" name="LGAUGE"> T  </i>
   <i type="int" name="MAGATOM">     0</i>
   <v name="MAGDIPOL">      0.00000000      0.00000000      0.00000000</v>
   <v name="AVECCONST">      0.00000000      0.00000000      0.00000000</v>
  </separator>
  <separator name="response functions" >
   <i type="logical" name="LADDER"> F  </i>
   <i type="logical" name="LRPAFORCE"> F  </i>
   <i type="logical" name="LFXC"> F  </i>
   <i type="logical" name="LHARTREE"> T  </i>
   <i type="int" name="IBSE">     0</i>
   <v type="int" name="KPOINT">    -1     0     0     0</v>
   <i type="logical" name="LTCTE"> F  </i>
   <i type="logical" name="LTETE"> F  </i>
   <i type="logical" name="LTRIPLET"> F  </i>
   <i type="logical" name="LFXCEPS"> F  </i>
   <i type="logical" name="LFXHEG"> F  </i>
   <i type="int" name="NATURALO">     2</i>
   <i type="logical" name="L2ORDER"> F  </i>
   <i type="logical" name="LMP2LT"> F  </i>
   <i type="logical" name="LUSEW"> F  </i>
   <i name="ENCUTGW">     -2.00000000</i>
   <i name="ENCUTGWSOFT">     -2.00000000</i>
   <i name="ENCUTLF">     -1.00000000</i>
   <i type="int" name="LMAXMP2">    -1</i>
   <i name="SCISSOR">      0.00000000</i>
   <i type="int" name="NOMEGA">     0</i>
   <i type="int" name="NOMEGAR">     0</i>
   <i type="int" name="NBANDSGW">    -1</i>
   <i type="int" name="NBANDSO">    -1</i>
   <i type="int" name="NBANDSV">    -1</i>
   <i type="int" name="NELM">   200</i>
   <i type="int" name="NELMHF">     1</i>
   <i type="int" name="DIM">     3</i>
   <i type="int" name="ANTIRES">     0</i>
   <i name="OMEGAMAX">    -30.00000000</i>
   <i name="OMEGAMIN">    -30.00000000</i>
   <i name="OMEGATL">   -200.00000000</i>
   <i type="int" name="OMEGAGRID">   140</i>
   <i name="CSHIFT">     -0.10000000</i>
   <i type="logical" name="SELFENERGY"> F  </i>
   <i type="logical" name="LSPECTRAL"> F  </i>
   <i type="logical" name="LSPECTRALGW"> F  </i>
   <i type="logical" name="LSINGLES"> F  </i>
   <i type="logical" name="LFERMIGW"> F  </i>
   <i type="logical" name="ODDONLYGW"> F  </i>
   <i type="logical" name="EVENONLYGW"> F  </i>
   <i type="int" name="NKREDLFX">     1</i>
   <i type="int" name="NKREDLFY">     1</i>
   <i type="int" name="NKREDLFZ">     1</i>
   <i type="int" name="MAXMEM">  2800</i>
   <i type="int" name="TELESCOPE">     0</i>
   <i type="int" name="TAUPAR">     1</i>
   <i type="int" name="OMEGAPAR">    -1</i>
   <i name="LAMBDA">      1.00000000</i>
  </separator>
  <separator name="External order field" >
   <i name="OFIELD_KAPPA">      0.00000000</i>
   <v name="OFIELD_K">      0.00000000      0.00000000      0.00000000</v>
   <i name="OFIELD_Q6_NEAR">      0.00000000</i>
   <i name="OFIELD_Q6_FAR">      0.00000000</i>
   <i name="OFIELD_A">      0.00000000</i>
  </separator>
  <separator name="solvation model" >
   <i type="logical" name="LSOL"> F  </i>
  </separator>
 </parameters>
 <atominfo>
  <atoms>      96 </atoms>
  <types>       3 </types>
  <array name="atoms" >
   <dimension dim="1">ion</dimension>
   <field type="string">element</field>
   <field type="int">atomtype</field>
   <set>
    <rc><c>C </c><c>   1</c></rc>
    <rc><c>C </c><c>   1</c></rc>
    <rc><c>C </c><c>   1</c></rc>
    <rc><c>C </c><c>   1</c></rc>
    <rc><c>C </c><c>   1</c></rc>
    <rc><c>C </c><c>   1</c></rc>
    <rc><c>C </c><c>   1</c></rc>
    <rc><c>C </c><c>   1</c></rc>
    <rc><c>C </c><c>   1</c></rc>
    <rc><c>C </c><c>   1</c></rc>
    <rc><c>C </c><c>   1</c></rc>
    <rc><c>C </c><c>   1</c></rc>
    <rc><c>C </c><c>   1</c></rc>
    <rc><c>C </c><c>   1</c></rc>
    <rc><c>C </c><c>   1</c></rc>
    <rc><c>C </c><c>   1</c></rc>
    <rc><c>C </c><c>   1</c></rc>
    <rc><c>C </c><c>   1</c></rc>
    <rc><c>C </c><c>   1</c></rc>
    <rc><c>C </c><c>   1</c></rc>
    <rc><c>C </c><c>   1</c></rc>
    <rc><c>C </c><c>   1</c></rc>
    <rc><c>C </c><c>   1</c></rc>
    <rc><c>C </c><c>   1</c></rc>
    <rc><c>C </c><c>   1</c></rc>
    <rc><c>C </c><c>   1</c></rc>
    <rc><c>C </c><c>   1</c></rc>
    <rc><c>C </c><c>   1</c></rc>
    <rc><c>C </c><c>   1</c></rc>
    <rc><c>C </c><c>   1</c></rc>
    <rc><c>C </c><c>   1</c></rc>
    <rc><c>C </c><c>   1</c></rc>
    <rc><c>C </c><c>   1</c></rc>
    <rc><c>C </c><c>   1</c></rc>
    <rc><c>C </c><c>   1</c></rc>
    <rc><c>C </c><c>   1</c></rc>
    <rc><c>C </c><c>   1</c></rc>
    <rc><c>C </c><c>   1</c></rc>
    <rc><c>C </c><c>   1</c></rc>
    <rc><c>C </c><c>   1</c></rc>
    <rc><c>C </c><c>   1</c></rc>
    <rc><c>C </c><c>   1</c></rc>
    <rc><c>H </c><c>   2</c></rc>
    <rc><c>H </c><c>   2</c></rc>
    <rc><c>H </c><c>   2</c></rc>
    <rc><c>H </c><c>   2</c></rc>
    <rc><c>H </c><c>   2</c></rc>
    <rc><c>H </c><c>   2</c></rc>
    <rc><c>H </c><c>   2</c></rc>
    <rc><c>H </c><c>   2</c></rc>
    <rc><c>H </c><c>   2</c></rc>
    <rc><c>H </c><c>   2</c></rc>
    <rc><c>H </c><c>   2</c></rc>
    <rc><c>H </c><c>   2</c></rc>
    <rc><c>H </c><c>   2</c></rc>
    <rc><c>H </c><c>   2</c></rc>
    <rc><c>H </c><c>   2</c></rc>
    <rc><c>H </c><c>   2</c></rc>
    <rc><c>H </c><c>   2</c></rc>
    <rc><c>H </c><c>   2</c></rc>
    <rc><c>H </c><c>   2</c></rc>
    <rc><c>H </c><c>   2</c></rc>
    <rc><c>H </c><c>   2</c></rc>
    <rc><c>H </c><c>   2</c></rc>
    <rc><c>H </c><c>   2</c></rc>
    <rc><c>H </c><c>   2</c></rc>
    <rc><c>H </c><c>   2</c></rc>
    <rc><c>H </c><c>   2</c></rc>
    <rc><c>H </c><c>   2</c></rc>
    <rc><c>H </c><c>   2</c></rc>
    <rc><c>H </c><c>   2</c></rc>
    <rc><c>H </c><c>   2</c></rc>
    <rc><c>H </c><c>   2</c></rc>
    <rc><c>H </c><c>   2</c></rc>
    <rc><c>H </c><c>   2</c></rc>
    <rc><c>H </c><c>   2</c></rc>
    <rc><c>H </c><c>   2</c></rc>
    <rc><c>H </c><c>   2</c></rc>
    <rc><c>H </c><c>   2</c></rc>
    <rc><c>H </c><c>   2</c></rc>
    <rc><c>H </c><c>   2</c></rc>
    <rc><c>H </c><c>   2</c></rc>
    <rc><c>H </c><c>   2</c></rc>
    <rc><c>H </c><c>   2</c></rc>
    <rc><c>N </c><c>   3</c></rc>
    <rc><c>N </c><c>   3</c></rc>
    <rc><c>N </c><c>   3</c></rc>
    <rc><c>N </c><c>   3</c></rc>
    <rc><c>N </c><c>   3</c></rc>
    <rc><c>N </c><c>   3</c></rc>
    <rc><c>N </c><c>   3</c></rc>
    <rc><c>N </c><c>   3</c></rc>
    <rc><c>N </c><c>   3</c></rc>
    <rc><c>N </c><c>   3</c></rc>
    <rc><c>N </c><c>   3</c></rc>
    <rc><c>N </c><c>   3</c></rc>
   </set>
  </array>
  <array name="atomtypes" >
   <dimension dim="1">type</dimension>
   <field type="int">atomspertype</field>
   <field type="string">element</field>
   <field>mass</field>
   <field>valence</field>
   <field type="string">pseudopotential</field>
   <set>
    <rc><c>  42</c><c>C </c><c>     12.01100000</c><c>      4.00000000</c><c>  PAW_PBE C 08Apr2002                   </c></rc>
    <rc><c>  42</c><c>H </c><c>      1.00000000</c><c>      1.00000000</c><c>  PAW_PBE H 15Jun2001                   </c></rc>
    <rc><c>  12</c><c>N </c><c>     14.00100000</c><c>      5.00000000</c><c>  PAW_PBE N 08Apr2002                   </c></rc>
   </set>
  </array>
 </atominfo>
 <structure name="initialpos" >
  <crystal>
   <varray name="basis" >
    <v>      21.81906973      -0.02952961       0.00000000 </v>
    <v>     -10.93507750      18.94264315       0.00000000 </v>
    <v>       0.00000000       0.00000000      20.00000000 </v>
   </varray>
   <i name="volume">   8259.75886293 </i>
   <varray name="rec_basis" >
    <v>       0.04586730       0.02647796       0.00000000 </v>
    <v>       0.00007150       0.05283222       0.00000000 </v>
    <v>       0.00000000       0.00000000       0.05000000 </v>
   </varray>
  </crystal>
  <varray name="positions" >
   <v>       0.08944802       0.53612716       0.50362256 </v>
   <v>       0.04951077       0.46175958       0.51117063 </v>
   <v>       0.08602783       0.41942427       0.52312329 </v>
   <v>       0.16686801       0.56836198       0.50246068 </v>
   <v>       0.05606701       0.57707572       0.49620762 </v>
   <v>       0.09732831       0.65584283       0.48483813 </v>
   <v>       0.28151647       0.64918158       0.53089568 </v>
   <v>       0.37253081       0.62733834       0.53052104 </v>
   <v>       0.35926013       0.93414330       0.52382458 </v>
   <v>       0.36493792       0.43664220       0.48455499 </v>
   <v>       0.39458117       0.74002644       0.53137969 </v>
   <v>       0.47328644       0.93158145       0.50451233 </v>
   <v>       0.43833225       0.97102168       0.51189553 </v>
   <v>       0.47752151       0.04529003       0.51113326 </v>
   <v>       0.43843687       0.08570873       0.51555748 </v>
   <v>       0.42833977       0.85431612       0.50325505 </v>
   <v>       0.48528326       0.54838432       0.50329025 </v>
   <v>       0.45337159       0.59367358       0.50207904 </v>
   <v>       0.47819765       0.43417734       0.49751900 </v>
   <v>       0.44388737       0.47406716       0.49592546 </v>
   <v>       0.43394715       0.35441543       0.49484762 </v>
   <v>       0.74955331       0.35969395       0.53462576 </v>
   <v>       0.63557343       0.27074138       0.53495054 </v>
   <v>       0.66046756       0.38435344       0.53486790 </v>
   <v>       0.55979142       0.58266055       0.51092367 </v>
   <v>       0.59440641       0.54302092       0.51044393 </v>
   <v>       0.67406889       0.58148863       0.51526416 </v>
   <v>       0.60265338       0.66150714       0.52279689 </v>
   <v>       0.97507509       0.42683337       0.51048119 </v>
   <v>       0.93410034       0.34733816       0.51507479 </v>
   <v>       0.55225320       0.07915542       0.50486252 </v>
   <v>       0.58727114       0.03954478       0.49853462 </v>
   <v>       0.54782254       0.96529667       0.49721969 </v>
   <v>       0.66727468       0.07600109       0.49579581 </v>
   <v>       0.58588700       0.92452179       0.48620769 </v>
   <v>       0.59714538       0.15630748       0.50327143 </v>
   <v>       0.55293638       0.46851031       0.50412373 </v>
   <v>       0.58470157       0.42319381       0.50271521 </v>
   <v>       0.94158557       0.46786240       0.50413244 </v>
   <v>       0.98167816       0.54244987       0.49767034 </v>
   <v>       0.94552669       0.58609072       0.49496061 </v>
   <v>       0.86431380       0.43579677       0.50260849 </v>
   <v>       0.14142029       0.45227375       0.53838416 </v>
   <v>       0.05920553       0.38038855       0.56300931 </v>
   <v>       0.08488260       0.38959088       0.47825464 </v>
   <v>       0.18853683       0.53985049       0.47464729 </v>
   <v>       0.15134454       0.67395276       0.46779331 </v>
   <v>       0.07063962       0.67173089       0.44797260 </v>
   <v>       0.10235849       0.68496003       0.53136247 </v>
   <v>       0.33697058       0.87888990       0.53897701 </v>
   <v>       0.34680571       0.96064612       0.56380638 </v>
   <v>       0.33038642       0.93517756       0.47900039 </v>
   <v>       0.37820038       0.83258587       0.47516105 </v>
   <v>       0.38483249       0.33563910       0.52353948 </v>
   <v>       0.34878176       0.39410431       0.44763028 </v>
   <v>       0.33571965       0.41246613       0.53106621 </v>
   <v>       0.38789579       0.05810224       0.48854226 </v>
   <v>       0.42636236       0.09140201       0.56790095 </v>
   <v>       0.46957598       0.13940326       0.49598675 </v>
   <v>       0.46128228       0.32826697       0.51574640 </v>
   <v>       0.41813298       0.33515508       0.44323258 </v>
   <v>       0.34698934       0.47258237       0.46764076 </v>
   <v>       0.69755626       0.63163243       0.48772160 </v>
   <v>       0.69160340       0.59405402       0.56765006 </v>
   <v>       0.69644057       0.54988157       0.49656226 </v>
   <v>       0.56998838       0.68426032       0.53769021 </v>
   <v>       0.64149302       0.67364276       0.56292764 </v>
   <v>       0.63296170       0.69006692       0.47801868 </v>
   <v>       0.48218560       0.64385240       0.47428590 </v>
   <v>       0.96147035       0.32420574       0.48815749 </v>
   <v>       0.92826022       0.32966416       0.56745906 </v>
   <v>       0.88029904       0.32485887       0.49550695 </v>
   <v>       0.69307597       0.12929615       0.51709176 </v>
   <v>       0.68655177       0.04594862       0.52403038 </v>
   <v>       0.68662122       0.08018531       0.44410620 </v>
   <v>       0.55010842       0.87026187       0.47002325 </v>
   <v>       0.62812716       0.95084552       0.44887719 </v>
   <v>       0.61074480       0.92058354       0.53270804 </v>
   <v>       0.64433309       0.17777694       0.47088535 </v>
   <v>       0.55888341       0.37622535       0.47019683 </v>
   <v>       0.89223535       0.55875011       0.51656499 </v>
   <v>       0.97601664       0.63554246       0.52295434 </v>
   <v>       0.94108244       0.60097590       0.44325570 </v>
   <v>       0.84292568       0.46149913       0.47025628 </v>
   <v>       0.20923761       0.62660243       0.53245996 </v>
   <v>       0.32513614       0.71952612       0.53211332 </v>
   <v>       0.30202780       0.60043220       0.53094257 </v>
   <v>       0.42149788       0.69661676       0.53143495 </v>
   <v>       0.39503856       0.57782208       0.53199902 </v>
   <v>       0.44426277       0.81209960       0.53334838 </v>
   <v>       0.70457025       0.28952191       0.53511176 </v>
   <v>       0.61016123       0.31550386       0.53550565 </v>
   <v>       0.73080684       0.40973777       0.53517139 </v>
   <v>       0.82138524       0.38104129       0.53684279 </v>
   <v>       0.63936948       0.43483959       0.53710715 </v>
   <v>       0.58507133       0.19905662       0.53742280 </v>
  </varray>
 </structure>
 <calculation>
  <scstep>
   <time name="dav">  122.37  123.39</time>
   <time name="total">  122.52  123.55</time>
   <energy>
    <i name="alphaZ">     39.99287144 </i>
    <i name="ewald">  30168.18696781 </i>
    <i name="hartreedc"> -38310.68663550 </i>
    <i name="XCdc">    937.60025995 </i>
    <i name="pawpsdc">  23894.97109772 </i>
    <i name="pawaedc"> -23941.32711807 </i>
    <i name="eentropy">     -0.00000000 </i>
    <i name="bandstr">  -3296.89214185 </i>
    <i name="atom">   9879.08195864 </i>
    <i name="e_fr_energy">   -629.07273987 </i>
    <i name="e_wo_entrp">   -629.07273987 </i>
    <i name="e_0_energy">   -629.07273987 </i>
   </energy>
  </scstep>
  <scstep>
   <time name="dav">  136.45  137.57</time>
   <time name="total">  136.46  137.58</time>
   <energy>
    <i name="e_fr_energy">   -629.75861017 </i>
    <i name="e_wo_entrp">   -629.75861017 </i>
    <i name="e_0_energy">   -629.75861017 </i>
   </energy>
  </scstep>
  <scstep>
   <time name="dav">  147.38  148.59</time>
   <time name="total">  147.39  148.60</time>
   <energy>
    <i name="e_fr_energy">   -629.77350408 </i>
    <i name="e_wo_entrp">   -629.77350408 </i>
    <i name="e_0_energy">   -629.77350408 </i>
   </energy>
  </scstep>
  <scstep>
   <time name="dav">  136.24  137.32</time>
   <time name="total">  136.25  137.33</time>
   <energy>
    <i name="e_fr_energy">   -629.77388767 </i>
    <i name="e_wo_entrp">   -629.77388767 </i>
    <i name="e_0_energy">   -629.77388767 </i>
   </energy>
  </scstep>
  <scstep>
   <time name="dav">  129.23  130.26</time>
   <time name="total">  129.24  130.27</time>
   <energy>
    <i name="e_fr_energy">   -629.77390033 </i>
    <i name="e_wo_entrp">   -629.77390033 </i>
    <i name="e_0_energy">   -629.77390033 </i>
   </energy>
  </scstep>
  <scstep>
   <time name="dav">  105.96  106.80</time>
   <time name="total">  105.97  106.82</time>
   <energy>
    <i name="alphaZ">     39.99287144 </i>
    <i name="ewald">  30168.18696781 </i>
    <i name="hartreedc"> -38310.68663550 </i>
    <i name="XCdc">    937.60025995 </i>
    <i name="pawpsdc">  23894.97109772 </i>
    <i name="pawaedc"> -23941.32711807 </i>
    <i name="eentropy">     -0.00000000 </i>
    <i name="bandstr">  -3297.59330264 </i>
    <i name="atom">   9879.08195864 </i>
    <i name="e_fr_energy">   -629.77390066 </i>
    <i name="e_wo_entrp">   -629.77390066 </i>
    <i name="e_0_energy">   -629.77390066 </i>
   </energy>
  </scstep>
  <structure>
   <crystal>
    <varray name="basis" >
     <v>      21.81906973      -0.02952961       0.00000000 </v>
     <v>     -10.93507750      18.94264315       0.00000000 </v>
     <v>       0.00000000       0.00000000      20.00000000 </v>
    </varray>
    <i name="volume">   8259.75886293 </i>
    <varray name="rec_basis" >
     <v>       0.04586730       0.02647796       0.00000000 </v>
     <v>       0.00007150       0.05283222       0.00000000 </v>
     <v>       0.00000000       0.00000000       0.05000000 </v>
    </varray>
   </crystal>
   <varray name="positions" >
    <v>       0.08944802       0.53612716       0.50362256 </v>
    <v>       0.04951077       0.46175958       0.51117063 </v>
    <v>       0.08602783       0.41942427       0.52312329 </v>
    <v>       0.16686801       0.56836198       0.50246068 </v>
    <v>       0.05606701       0.57707572       0.49620762 </v>
    <v>       0.09732831       0.65584283       0.48483813 </v>
    <v>       0.28151647       0.64918158       0.53089568 </v>
    <v>       0.37253081       0.62733834       0.53052104 </v>
    <v>       0.35926013       0.93414330       0.52382458 </v>
    <v>       0.36493792       0.43664220       0.48455499 </v>
    <v>       0.39458117       0.74002644       0.53137969 </v>
    <v>       0.47328644       0.93158145       0.50451233 </v>
    <v>       0.43833225       0.97102168       0.51189553 </v>
    <v>       0.47752151       0.04529003       0.51113326 </v>
    <v>       0.43843687       0.08570873       0.51555748 </v>
    <v>       0.42833977       0.85431612       0.50325505 </v>
    <v>       0.48528326       0.54838432       0.50329025 </v>
    <v>       0.45337159       0.59367358       0.50207904 </v>
    <v>       0.47819765       0.43417734       0.49751900 </v>
    <v>       0.44388737       0.47406716       0.49592546 </v>
    <v>       0.43394715       0.35441543       0.49484762 </v>
    <v>       0.74955331       0.35969395       0.53462576 </v>
    <v>       0.63557343       0.27074138       0.53495054 </v>
    <v>       0.66046756       0.38435344       0.53486790 </v>
    <v>       0.55979142       0.58266055       0.51092367 </v>
    <v>       0.59440641       0.54302092       0.51044393 </v>
    <v>       0.67406889       0.58148863       0.51526416 </v>
    <v>       0.60265338       0.66150714       0.52279689 </v>
    <v>       0.97507509       0.42683337       0.51048119 </v>
    <v>       0.93410034       0.34733816       0.51507479 </v>
    <v>       0.55225320       0.07915542       0.50486252 </v>
    <v>       0.58727114       0.03954478       0.49853462 </v>
    <v>       0.54782254       0.96529667       0.49721969 </v>
    <v>       0.66727468       0.07600109       0.49579581 </v>
    <v>       0.58588700       0.92452179       0.48620769 </v>
    <v>       0.59714538       0.15630748       0.50327143 </v>
    <v>       0.55293638       0.46851031       0.50412373 </v>
    <v>       0.58470157       0.42319381       0.50271521 </v>
    <v>       0.94158557       0.46786240       0.50413244 </v>
    <v>       0.98167816       0.54244987       0.49767034 </v>
    <v>       0.94552669       0.58609072       0.49496061 </v>
    <v>       0.86431380       0.43579677       0.50260849 </v>
    <v>       0.14142029       0.45227375       0.53838416 </v>
    <v>       0.05920553       0.38038855       0.56300931 </v>
    <v>       0.08488260       0.38959088       0.47825464 </v>
    <v>       0.18853683       0.53985049       0.47464729 </v>
    <v>       0.15134454       0.67395276       0.46779331 </v>
    <v>       0.07063962       0.67173089       0.44797260 </v>
    <v>       0.10235849       0.68496003       0.53136247 </v>
    <v>       0.33697058       0.87888990       0.53897701 </v>
    <v>       0.34680571       0.96064612       0.56380638 </v>
    <v>       0.33038642       0.93517756       0.47900039 </v>
    <v>       0.37820038       0.83258587       0.47516105 </v>
    <v>       0.38483249       0.33563910       0.52353948 </v>
    <v>       0.34878176       0.39410431       0.44763028 </v>
    <v>       0.33571965       0.41246613       0.53106621 </v>
    <v>       0.38789579       0.05810224       0.48854226 </v>
    <v>       0.42636236       0.09140201       0.56790095 </v>
    <v>       0.46957598       0.13940326       0.49598675 </v>
    <v>       0.46128228       0.32826697       0.51574640 </v>
    <v>       0.41813298       0.33515508       0.44323258 </v>
    <v>       0.34698934       0.47258237       0.46764076 </v>
    <v>       0.69755626       0.63163243       0.48772160 </v>
    <v>       0.69160340       0.59405402       0.56765006 </v>
    <v>       0.69644057       0.54988157       0.49656226 </v>
    <v>       0.56998838       0.68426032       0.53769021 </v>
    <v>       0.64149302       0.67364276       0.56292764 </v>
    <v>       0.63296170       0.69006692       0.47801868 </v>
    <v>       0.48218560       0.64385240       0.47428590 </v>
    <v>       0.96147035       0.32420574       0.48815749 </v>
    <v>       0.92826022       0.32966416       0.56745906 </v>
    <v>       0.88029904       0.32485887       0.49550695 </v>
    <v>       0.69307597       0.12929615       0.51709176 </v>
    <v>       0.68655177       0.04594862       0.52403038 </v>
    <v>       0.68662122       0.08018531       0.44410620 </v>
    <v>       0.55010842       0.87026187       0.47002325 </v>
    <v>       0.62812716       0.95084552       0.44887719 </v>
    <v>       0.61074480       0.92058354       0.53270804 </v>
    <v>       0.64433309       0.17777694       0.47088535 </v>
    <v>       0.55888341       0.37622535       0.47019683 </v>
    <v>       0.89223535       0.55875011       0.51656499 </v>
    <v>       0.97601664       0.63554246       0.52295434 </v>
    <v>       0.94108244       0.60097590       0.44325570 </v>
    <v>       0.84292568       0.46149913       0.47025628 </v>
    <v>       0.20923761       0.62660243       0.53245996 </v>
    <v>       0.32513614       0.71952612       0.53211332 </v>
    <v>       0.30202780       0.60043220       0.53094257 </v>
    <v>       0.42149788       0.69661676       0.53143495 </v>
    <v>       0.39503856       0.57782208       0.53199902 </v>
    <v>       0.44426277       0.81209960       0.53334838 </v>
    <v>       0.70457025       0.28952191       0.53511176 </v>
    <v>       0.61016123       0.31550386       0.53550565 </v>
    <v>       0.73080684       0.40973777       0.53517139 </v>
    <v>       0.82138524       0.38104129       0.53684279 </v>
    <v>       0.63936948       0.43483959       0.53710715 </v>
    <v>       0.58507133       0.19905662       0.53742280 </v>
   </varray>
  </structure>
  <varray name="forces" >
   <v>       0.00219220      -0.00007348      -0.00093872 </v>
   <v>      -0.00201431       0.00243924      -0.00139413 </v>
   <v>       0.00010473       0.00112645      -0.00120351 </v>
   <v>      -0.00105179      -0.00256841      -0.00078797 </v>
   <v>       0.00003798      -0.00143774       0.00071420 </v>
   <v>       0.00001347      -0.00149161       0.00021587 </v>
   <v>      -0.00085865      -0.00007052       0.00013998 </v>
   <v>       0.00014988       0.00167071      -0.00014605 </v>
   <v>       0.00203186       0.00187664      -0.00196690 </v>
   <v>      -0.00043460      -0.00200356      -0.00000315 </v>
   <v>       0.00307547      -0.00348257       0.00051718 </v>
   <v>      -0.00114235       0.00103802       0.00038559 </v>
   <v>       0.00116844       0.00220862      -0.00082560 </v>
   <v>       0.00271924      -0.00246208       0.00011307 </v>
   <v>       0.00186451      -0.00032000      -0.00102281 </v>
   <v>       0.00279642       0.00106016       0.00325429 </v>
   <v>      -0.00122964      -0.00078361      -0.00053544 </v>
   <v>       0.00256027       0.00171287      -0.00277694 </v>
   <v>      -0.00099578      -0.00059296      -0.00026915 </v>
   <v>      -0.00123716      -0.00197662       0.00025413 </v>
   <v>      -0.00029332      -0.00197801       0.00067051 </v>
   <v>       0.00050583       0.00078212       0.00508234 </v>
   <v>      -0.00013657       0.00232073       0.00181478 </v>
   <v>       0.00007939      -0.00019367       0.00159808 </v>
   <v>       0.00064120       0.00059571      -0.00040323 </v>
   <v>      -0.00004951       0.00096339       0.00048036 </v>
   <v>       0.00081002      -0.00020445      -0.00112251 </v>
   <v>      -0.00028822       0.00305551      -0.00025440 </v>
   <v>       0.00160515       0.00294138       0.00029905 </v>
   <v>      -0.00072623       0.00010375      -0.00049704 </v>
   <v>      -0.00087182      -0.00201582       0.00218944 </v>
   <v>      -0.00225900      -0.00182506       0.00098560 </v>
   <v>      -0.00153001       0.00048105       0.00105687 </v>
   <v>      -0.00212596      -0.00151427       0.00098182 </v>
   <v>      -0.00310525       0.00161960       0.00076561 </v>
   <v>       0.00088112      -0.00705763      -0.00115315 </v>
   <v>       0.00108693      -0.00151534      -0.00041595 </v>
   <v>       0.00596896       0.00134296       0.00280999 </v>
   <v>      -0.00130618       0.00046250      -0.00077466 </v>
   <v>       0.00392680       0.00059112       0.00012580 </v>
   <v>       0.00114713       0.00022557       0.00144654 </v>
   <v>      -0.00008635      -0.00695504       0.00343633 </v>
   <v>       0.00115705      -0.00008923      -0.00138247 </v>
   <v>       0.00076563      -0.00104749      -0.00029378 </v>
   <v>       0.00099467      -0.00087050      -0.00307578 </v>
   <v>      -0.00074297       0.00200252       0.00093472 </v>
   <v>       0.00027420       0.00219280       0.00078982 </v>
   <v>      -0.00002626       0.00135183      -0.00022118 </v>
   <v>      -0.00047653       0.00130719       0.00095336 </v>
   <v>       0.00029147      -0.00051520      -0.00190942 </v>
   <v>      -0.00237988       0.00098854      -0.00167969 </v>
   <v>      -0.00016146       0.00105555      -0.00466561 </v>
   <v>      -0.00069541      -0.00100424      -0.00129026 </v>
   <v>       0.00129332      -0.00093179      -0.00006435 </v>
   <v>       0.00141905       0.00138176       0.00166869 </v>
   <v>       0.00071984       0.00079060      -0.00103504 </v>
   <v>      -0.00344114      -0.00006789      -0.00234970 </v>
   <v>      -0.00196944       0.00121776       0.00247172 </v>
   <v>      -0.00077762       0.00284739      -0.00083909 </v>
   <v>      -0.00046878       0.00062101       0.00009781 </v>
   <v>       0.00000222      -0.00207210       0.00181788 </v>
   <v>       0.00147686      -0.00047331       0.00018108 </v>
   <v>       0.00107452      -0.00026439      -0.00106904 </v>
   <v>       0.00097936      -0.00043455      -0.00112792 </v>
   <v>      -0.00051608      -0.00023615      -0.00115110 </v>
   <v>       0.00115732      -0.00133895      -0.00192117 </v>
   <v>      -0.00080623       0.00022479      -0.00215248 </v>
   <v>       0.00022591      -0.00243617      -0.00098556 </v>
   <v>      -0.00125894      -0.00074868      -0.00128551 </v>
   <v>       0.00152185       0.00017876      -0.00123794 </v>
   <v>       0.00023394      -0.00004295       0.00170773 </v>
   <v>      -0.00116670      -0.00099303      -0.00079190 </v>
   <v>      -0.00056024       0.00234047       0.00166331 </v>
   <v>       0.00144336      -0.00016076       0.00133690 </v>
   <v>       0.00161261       0.00041925      -0.00120035 </v>
   <v>      -0.00057199      -0.00075695      -0.00076424 </v>
   <v>       0.00039624       0.00131396      -0.00097374 </v>
   <v>       0.00125150      -0.00039557       0.00118062 </v>
   <v>      -0.00246678       0.00095989       0.00051024 </v>
   <v>      -0.00386180       0.00072534       0.00072958 </v>
   <v>      -0.00116008       0.00028345       0.00152086 </v>
   <v>       0.00085977       0.00146555       0.00108470 </v>
   <v>      -0.00030575       0.00190244      -0.00097679 </v>
   <v>       0.00008710       0.00122696      -0.00210389 </v>
   <v>      -0.00028480      -0.00430428       0.00083096 </v>
   <v>       0.00553087      -0.00327510      -0.00044567 </v>
   <v>       0.00261132       0.00485820      -0.00042950 </v>
   <v>      -0.00600571      -0.00158772       0.00118819 </v>
   <v>      -0.00110022      -0.00056099       0.00207729 </v>
   <v>      -0.00219299       0.00190407      -0.00158913 </v>
   <v>       0.00031885      -0.00407668       0.00449619 </v>
   <v>      -0.00201164       0.00082679      -0.00423307 </v>
   <v>       0.00174265       0.00155056       0.00584739 </v>
   <v>       0.00096730      -0.00077605      -0.00399420 </v>
   <v>      -0.00403019      -0.00128076      -0.00557433 </v>
   <v>      -0.00459347       0.00670840       0.00687868 </v>
  </varray>
  <varray name="stress" >
   <v>      -0.00366196      -0.00382966      -0.00002085 </v>
   <v>      -0.00382966      -0.00308180      -0.00032073 </v>
   <v>      -0.00002086      -0.00032073      -0.23323057 </v>
  </varray>
  <energy>
   <i name="e_fr_energy">   -631.67715380 </i>
   <i name="e_wo_entrp">   -631.67715380 </i>
   <i name="e_0_energy">     -0.00000000 </i>
  </energy>
  <time name="totalsc">  879.00  886.35</time>
  <eigenvalues>
   <array>
    <dimension dim="1">band</dimension>
    <dimension dim="2">kpoint</dimension>
    <dimension dim="3">spin</dimension>
    <field>eigene</field>
    <field>occ</field>
    <set>
     <set comment="spin 1">
      <set comment="kpoint 1">
       <r>  -25.4650    1.0000 </r>
       <r>  -25.3918    1.0000 </r>
       <r>  -23.6347    1.0000 </r>
       <r>  -23.6288    1.0000 </r>
       <r>  -23.5911    1.0000 </r>
       <r>  -23.5903    1.0000 </r>
       <r>  -22.4935    1.0000 </r>
       <r>  -22.4145    1.0000 </r>
       <r>  -21.6055    1.0000 </r>
       <r>  -21.6024    1.0000 </r>
       <r>  -21.3670    1.0000 </r>
       <r>  -21.3620    1.0000 </r>
       <r>  -21.1854    1.0000 </r>
       <r>  -21.0111    1.0000 </r>
       <r>  -21.0084    1.0000 </r>
       <r>  -19.5857    1.0000 </r>
       <r>  -19.5843    1.0000 </r>
       <r>  -19.5817    1.0000 </r>
       <r>  -19.2373    1.0000 </r>
       <r>  -19.2370    1.0000 </r>
       <r>  -19.1562    1.0000 </r>
       <r>  -17.6491    1.0000 </r>
       <r>  -17.6458    1.0000 </r>
       <r>  -17.5960    1.0000 </r>
       <r>  -17.5877    1.0000 </r>
       <r>  -17.5873    1.0000 </r>
       <r>  -17.4568    1.0000 </r>
       <r>  -16.9957    1.0000 </r>
       <r>  -16.9925    1.0000 </r>
       <r>  -16.8854    1.0000 </r>
       <r>  -16.8814    1.0000 </r>
       <r>  -16.5590    1.0000 </r>
       <r>  -16.4807    1.0000 </r>
       <r>  -15.9765    1.0000 </r>
       <r>  -15.9738    1.0000 </r>
       <r>  -15.3901    1.0000 </r>
       <r>  -15.3822    1.0000 </r>
       <r>  -15.3807    1.0000 </r>
       <r>  -14.9986    1.0000 </r>
       <r>  -14.9978    1.0000 </r>
       <r>  -14.9891    1.0000 </r>
       <r>  -13.9737    1.0000 </r>
       <r>  -13.6550    1.0000 </r>
       <r>  -13.6529    1.0000 </r>
       <r>  -13.4893    1.0000 </r>
       <r>  -13.3945    1.0000 </r>
       <r>  -13.3278    1.0000 </r>
       <r>  -13.3267    1.0000 </r>
       <r>  -13.0424    1.0000 </r>
       <r>  -12.9504    1.0000 </r>
       <r>  -12.6058    1.0000 </r>
       <r>  -12.6025    1.0000 </r>
       <r>  -12.2579    1.0000 </r>
       <r>  -12.2550    1.0000 </r>
       <r>  -12.2096    1.0000 </r>
       <r>  -11.6121    1.0000 </r>
       <r>  -11.6099    1.0000 </r>
       <r>  -11.4901    1.0000 </r>
       <r>  -11.4564    1.0000 </r>
       <r>  -11.2293    1.0000 </r>
       <r>  -11.0944    1.0000 </r>
       <r>  -11.0917    1.0000 </r>
       <r>  -11.0602    1.0000 </r>
       <r>  -11.0580    1.0000 </r>
       <r>  -10.6497    1.0000 </r>
       <r>  -10.5159    1.0000 </r>
       <r>  -10.5104    1.0000 </r>
       <r>  -10.4043    1.0000 </r>
       <r>  -10.3978    1.0000 </r>
       <r>  -10.3955    1.0000 </r>
       <r>  -10.0316    1.0000 </r>
       <r>  -10.0099    1.0000 </r>
       <r>  -10.0072    1.0000 </r>
       <r>   -9.9799    1.0000 </r>
       <r>   -9.8415    1.0000 </r>
       <r>   -9.8393    1.0000 </r>
       <r>   -9.8092    1.0000 </r>
       <r>   -9.4769    1.0000 </r>
       <r>   -9.4756    1.0000 </r>
       <r>   -9.3691    1.0000 </r>
       <r>   -9.3490    1.0000 </r>
       <r>   -9.3470    1.0000 </r>
       <r>   -9.3093    1.0000 </r>
       <r>   -9.3051    1.0000 </r>
       <r>   -9.3041    1.0000 </r>
       <r>   -9.1901    1.0000 </r>
       <r>   -9.1884    1.0000 </r>
       <r>   -9.1859    1.0000 </r>
       <r>   -9.1727    1.0000 </r>
       <r>   -9.1699    1.0000 </r>
       <r>   -9.1680    1.0000 </r>
       <r>   -8.9769    1.0000 </r>
       <r>   -8.8274    1.0000 </r>
       <r>   -8.8243    1.0000 </r>
       <r>   -8.7824    1.0000 </r>
       <r>   -8.7414    1.0000 </r>
       <r>   -8.7401    1.0000 </r>
       <r>   -8.6878    1.0000 </r>
       <r>   -8.6545    1.0000 </r>
       <r>   -8.5191    1.0000 </r>
       <r>   -8.5176    1.0000 </r>
       <r>   -8.5148    1.0000 </r>
       <r>   -8.4841    1.0000 </r>
       <r>   -8.4826    1.0000 </r>
       <r>   -8.0659    1.0000 </r>
       <r>   -8.0640    1.0000 </r>
       <r>   -7.9620    1.0000 </r>
       <r>   -7.8815    1.0000 </r>
       <r>   -7.7574    1.0000 </r>
       <r>   -7.7553    1.0000 </r>
       <r>   -7.7433    1.0000 </r>
       <r>   -7.6462    1.0000 </r>
       <r>   -7.6224    1.0000 </r>
       <r>   -7.6209    1.0000 </r>
       <r>   -7.2834    1.0000 </r>
       <r>   -7.2809    1.0000 </r>
       <r>   -7.0861    1.0000 </r>
       <r>   -6.7709    1.0000 </r>
       <r>   -6.7687    1.0000 </r>
       <r>   -5.9572    1.0000 </r>
       <r>   -5.9191    1.0000 </r>
       <r>   -5.9164    1.0000 </r>
       <r>   -5.8412    1.0000 </r>
       <r>   -5.8374    1.0000 </r>
       <r>   -5.8235    1.0000 </r>
       <r>   -5.7625    1.0000 </r>
       <r>   -5.7573    1.0000 </r>
       <r>   -5.6671    1.0000 </r>
       <r>   -5.6650    1.0000 </r>
       <r>   -5.5310    1.0000 </r>
       <r>   -5.5194    1.0000 </r>
       <r>   -5.5180    1.0000 </r>
       <r>   -5.3444    1.0000 </r>
       <r>   -5.3433    1.0000 </r>
       <r>   -5.3424    1.0000 </r>
       <r>   -2.8621    0.0000 </r>
       <r>   -2.8580    0.0000 </r>
       <r>   -2.3563    0.0000 </r>
       <r>   -2.1912    0.0000 </r>
       <r>   -2.1884    0.0000 </r>
       <r>   -1.4028    0.0000 </r>
       <r>   -0.8047    0.0000 </r>
       <r>   -0.8019    0.0000 </r>
       <r>   -0.7678    0.0000 </r>
       <r>   -0.7331    0.0000 </r>
       <r>   -0.7316    0.0000 </r>
       <r>   -0.3677    0.0000 </r>
       <r>   -0.1778    0.0000 </r>
       <r>   -0.1711    0.0000 </r>
       <r>   -0.0493    0.0000 </r>
       <r>   -0.0461    0.0000 </r>
       <r>   -0.0110    0.0000 </r>
       <r>   -0.0077    0.0000 </r>
       <r>    0.0351    0.0000 </r>
       <r>    0.1459    0.0000 </r>
       <r>    0.3710    0.0000 </r>
       <r>    0.4002    0.0000 </r>
       <r>    0.4047    0.0000 </r>
       <r>    0.5799    0.0000 </r>
       <r>    0.6103    0.0000 </r>
       <r>    0.6938    0.0000 </r>
       <r>    0.7335    0.0000 </r>
       <r>    0.7357    0.0000 </r>
       <r>    0.7876    0.0000 </r>
       <r>    0.7885    0.0000 </r>
       <r>    0.8307    0.0000 </r>
       <r>    0.8314    0.0000 </r>
       <r>    0.8363    0.0000 </r>
       <r>    0.9361    0.0000 </r>
       <r>    1.0644    0.0000 </r>
       <r>    1.0777    0.0000 </r>
       <r>    1.0795    0.0000 </r>
       <r>    1.0942    0.0000 </r>
       <r>    1.0956    0.0000 </r>
       <r>    1.0975    0.0000 </r>
       <r>    1.1130    0.0000 </r>
       <r>    1.1151    0.0000 </r>
       <r>    1.1153    0.0000 </r>
       <r>    1.1716    0.0000 </r>
       <r>    1.2757    0.0000 </r>
       <r>    1.2792    0.0000 </r>
       <r>    1.3452    0.0000 </r>
       <r>    1.3709    0.0000 </r>
       <r>    1.3906    0.0000 </r>
       <r>    1.3923    0.0000 </r>
       <r>    1.5099    0.0000 </r>
       <r>    1.6163    0.0000 </r>
       <r>    1.6168    0.0000 </r>
       <r>    1.6476    0.0000 </r>
       <r>    1.6498    0.0000 </r>
       <r>    1.6891    0.0000 </r>
       <r>    1.7652    0.0000 </r>
      </set>
      <set comment="kpoint 2">
       <r>  -25.4650    1.0000 </r>
       <r>  -25.3918    1.0000 </r>
       <r>  -23.6347    1.0000 </r>
       <r>  -23.6288    1.0000 </r>
       <r>  -23.5911    1.0000 </r>
       <r>  -23.5903    1.0000 </r>
       <r>  -22.4934    1.0000 </r>
       <r>  -22.4146    1.0000 </r>
       <r>  -21.6053    1.0000 </r>
       <r>  -21.6024    1.0000 </r>
       <r>  -21.3676    1.0000 </r>
       <r>  -21.3620    1.0000 </r>
       <r>  -21.1848    1.0000 </r>
       <r>  -21.0113    1.0000 </r>
       <r>  -21.0084    1.0000 </r>
       <r>  -19.5857    1.0000 </r>
       <r>  -19.5843    1.0000 </r>
       <r>  -19.5817    1.0000 </r>
       <r>  -19.2372    1.0000 </r>
       <r>  -19.2370    1.0000 </r>
       <r>  -19.1564    1.0000 </r>
       <r>  -17.6490    1.0000 </r>
       <r>  -17.6456    1.0000 </r>
       <r>  -17.5960    1.0000 </r>
       <r>  -17.5877    1.0000 </r>
       <r>  -17.5873    1.0000 </r>
       <r>  -17.4570    1.0000 </r>
       <r>  -16.9956    1.0000 </r>
       <r>  -16.9925    1.0000 </r>
       <r>  -16.8855    1.0000 </r>
       <r>  -16.8815    1.0000 </r>
       <r>  -16.5589    1.0000 </r>
       <r>  -16.4810    1.0000 </r>
       <r>  -15.9761    1.0000 </r>
       <r>  -15.9730    1.0000 </r>
       <r>  -15.3901    1.0000 </r>
       <r>  -15.3821    1.0000 </r>
       <r>  -15.3807    1.0000 </r>
       <r>  -15.0259    1.0000 </r>
       <r>  -14.9979    1.0000 </r>
       <r>  -14.9618    1.0000 </r>
       <r>  -13.9756    1.0000 </r>
       <r>  -13.6545    1.0000 </r>
       <r>  -13.6519    1.0000 </r>
       <r>  -13.4890    1.0000 </r>
       <r>  -13.3954    1.0000 </r>
       <r>  -13.3274    1.0000 </r>
       <r>  -13.3259    1.0000 </r>
       <r>  -13.0432    1.0000 </r>
       <r>  -12.9509    1.0000 </r>
       <r>  -12.6055    1.0000 </r>
       <r>  -12.6025    1.0000 </r>
       <r>  -12.2613    1.0000 </r>
       <r>  -12.2549    1.0000 </r>
       <r>  -12.2056    1.0000 </r>
       <r>  -11.6129    1.0000 </r>
       <r>  -11.6106    1.0000 </r>
       <r>  -11.4895    1.0000 </r>
       <r>  -11.4556    1.0000 </r>
       <r>  -11.2306    1.0000 </r>
       <r>  -11.0949    1.0000 </r>
       <r>  -11.0920    1.0000 </r>
       <r>  -11.0596    1.0000 </r>
       <r>  -11.0572    1.0000 </r>
       <r>  -10.6512    1.0000 </r>
       <r>  -10.5159    1.0000 </r>
       <r>  -10.5087    1.0000 </r>
       <r>  -10.4043    1.0000 </r>
       <r>  -10.3978    1.0000 </r>
       <r>  -10.3955    1.0000 </r>
       <r>  -10.0318    1.0000 </r>
       <r>  -10.0099    1.0000 </r>
       <r>  -10.0072    1.0000 </r>
       <r>   -9.9804    1.0000 </r>
       <r>   -9.8413    1.0000 </r>
       <r>   -9.8392    1.0000 </r>
       <r>   -9.8092    1.0000 </r>
       <r>   -9.4769    1.0000 </r>
       <r>   -9.4756    1.0000 </r>
       <r>   -9.3717    1.0000 </r>
       <r>   -9.3476    1.0000 </r>
       <r>   -9.3458    1.0000 </r>
       <r>   -9.3092    1.0000 </r>
       <r>   -9.3051    1.0000 </r>
       <r>   -9.3040    1.0000 </r>
       <r>   -9.1901    1.0000 </r>
       <r>   -9.1884    1.0000 </r>
       <r>   -9.1859    1.0000 </r>
       <r>   -9.1727    1.0000 </r>
       <r>   -9.1699    1.0000 </r>
       <r>   -9.1680    1.0000 </r>
       <r>   -8.9779    1.0000 </r>
       <r>   -8.8268    1.0000 </r>
       <r>   -8.8242    1.0000 </r>
       <r>   -8.7824    1.0000 </r>
       <r>   -8.7414    1.0000 </r>
       <r>   -8.7401    1.0000 </r>
       <r>   -8.6877    1.0000 </r>
       <r>   -8.6545    1.0000 </r>
       <r>   -8.5200    1.0000 </r>
       <r>   -8.5179    1.0000 </r>
       <r>   -8.5137    1.0000 </r>
       <r>   -8.4841    1.0000 </r>
       <r>   -8.4827    1.0000 </r>
       <r>   -8.0658    1.0000 </r>
       <r>   -8.0639    1.0000 </r>
       <r>   -7.9621    1.0000 </r>
       <r>   -7.8816    1.0000 </r>
       <r>   -7.7621    1.0000 </r>
       <r>   -7.7554    1.0000 </r>
       <r>   -7.7385    1.0000 </r>
       <r>   -7.6462    1.0000 </r>
       <r>   -7.6222    1.0000 </r>
       <r>   -7.6208    1.0000 </r>
       <r>   -7.2836    1.0000 </r>
       <r>   -7.2816    1.0000 </r>
       <r>   -7.0851    1.0000 </r>
       <r>   -6.7709    1.0000 </r>
       <r>   -6.7690    1.0000 </r>
       <r>   -5.9570    1.0000 </r>
       <r>   -5.9190    1.0000 </r>
       <r>   -5.9164    1.0000 </r>
       <r>   -5.8412    1.0000 </r>
       <r>   -5.8374    1.0000 </r>
       <r>   -5.8235    1.0000 </r>
       <r>   -5.7625    1.0000 </r>
       <r>   -5.7574    1.0000 </r>
       <r>   -5.6673    1.0000 </r>
       <r>   -5.6651    1.0000 </r>
       <r>   -5.5309    1.0000 </r>
       <r>   -5.5194    1.0000 </r>
       <r>   -5.5180    1.0000 </r>
       <r>   -5.3444    1.0000 </r>
       <r>   -5.3433    1.0000 </r>
       <r>   -5.3424    1.0000 </r>
       <r>   -2.8617    0.0000 </r>
       <r>   -2.8580    0.0000 </r>
       <r>   -2.3598    0.0000 </r>
       <r>   -2.1892    0.0000 </r>
       <r>   -2.1867    0.0000 </r>
       <r>   -1.4040    0.0000 </r>
       <r>   -0.8046    0.0000 </r>
       <r>   -0.8015    0.0000 </r>
       <r>   -0.7678    0.0000 </r>
       <r>   -0.7331    0.0000 </r>
       <r>   -0.7310    0.0000 </r>
       <r>   -0.3675    0.0000 </r>
       <r>   -0.1778    0.0000 </r>
       <r>   -0.1725    0.0000 </r>
       <r>   -0.0512    0.0000 </r>
       <r>   -0.0491    0.0000 </r>
       <r>   -0.0087    0.0000 </r>
       <r>   -0.0059    0.0000 </r>
       <r>    0.0366    0.0000 </r>
       <r>    0.1472    0.0000 </r>
       <r>    0.3712    0.0000 </r>
       <r>    0.3999    0.0000 </r>
       <r>    0.4044    0.0000 </r>
       <r>    0.5789    0.0000 </r>
       <r>    0.6105    0.0000 </r>
       <r>    0.6940    0.0000 </r>
       <r>    0.7322    0.0000 </r>
       <r>    0.7331    0.0000 </r>
       <r>    0.7886    0.0000 </r>
       <r>    0.7892    0.0000 </r>
       <r>    0.8276    0.0000 </r>
       <r>    0.8320    0.0000 </r>
       <r>    0.8415    0.0000 </r>
       <r>    0.9344    0.0000 </r>
       <r>    1.0592    0.0000 </r>
       <r>    1.0756    0.0000 </r>
       <r>    1.0768    0.0000 </r>
       <r>    1.0895    0.0000 </r>
       <r>    1.0941    0.0000 </r>
       <r>    1.1003    0.0000 </r>
       <r>    1.1142    0.0000 </r>
       <r>    1.1199    0.0000 </r>
       <r>    1.1268    0.0000 </r>
       <r>    1.1704    0.0000 </r>
       <r>    1.2747    0.0000 </r>
       <r>    1.2803    0.0000 </r>
       <r>    1.3418    0.0000 </r>
       <r>    1.3667    0.0000 </r>
       <r>    1.3931    0.0000 </r>
       <r>    1.4005    0.0000 </r>
       <r>    1.5094    0.0000 </r>
       <r>    1.6124    0.0000 </r>
       <r>    1.6130    0.0000 </r>
       <r>    1.6492    0.0000 </r>
       <r>    1.6523    0.0000 </r>
       <r>    1.6929    0.0000 </r>
       <r>    1.7650    0.0000 </r>
      </set>
      <set comment="kpoint 3">
       <r>  -25.4650    1.0000 </r>
       <r>  -25.3918    1.0000 </r>
       <r>  -23.6347    1.0000 </r>
       <r>  -23.6288    1.0000 </r>
       <r>  -23.5911    1.0000 </r>
       <r>  -23.5903    1.0000 </r>
       <r>  -22.4932    1.0000 </r>
       <r>  -22.4149    1.0000 </r>
       <r>  -21.6046    1.0000 </r>
       <r>  -21.6022    1.0000 </r>
       <r>  -21.3695    1.0000 </r>
       <r>  -21.3621    1.0000 </r>
       <r>  -21.1831    1.0000 </r>
       <r>  -21.0117    1.0000 </r>
       <r>  -21.0084    1.0000 </r>
       <r>  -19.5857    1.0000 </r>
       <r>  -19.5843    1.0000 </r>
       <r>  -19.5817    1.0000 </r>
       <r>  -19.2371    1.0000 </r>
       <r>  -19.2367    1.0000 </r>
       <r>  -19.1568    1.0000 </r>
       <r>  -17.6488    1.0000 </r>
       <r>  -17.6450    1.0000 </r>
       <r>  -17.5960    1.0000 </r>
       <r>  -17.5877    1.0000 </r>
       <r>  -17.5873    1.0000 </r>
       <r>  -17.4577    1.0000 </r>
       <r>  -16.9955    1.0000 </r>
       <r>  -16.9924    1.0000 </r>
       <r>  -16.8860    1.0000 </r>
       <r>  -16.8818    1.0000 </r>
       <r>  -16.5588    1.0000 </r>
       <r>  -16.4820    1.0000 </r>
       <r>  -15.9757    1.0000 </r>
       <r>  -15.9699    1.0000 </r>
       <r>  -15.3903    1.0000 </r>
       <r>  -15.3821    1.0000 </r>
       <r>  -15.3807    1.0000 </r>
       <r>  -15.0573    1.0000 </r>
       <r>  -14.9979    1.0000 </r>
       <r>  -14.9303    1.0000 </r>
       <r>  -13.9812    1.0000 </r>
       <r>  -13.6542    1.0000 </r>
       <r>  -13.6479    1.0000 </r>
       <r>  -13.4882    1.0000 </r>
       <r>  -13.3979    1.0000 </r>
       <r>  -13.3272    1.0000 </r>
       <r>  -13.3228    1.0000 </r>
       <r>  -13.0454    1.0000 </r>
       <r>  -12.9525    1.0000 </r>
       <r>  -12.6049    1.0000 </r>
       <r>  -12.6022    1.0000 </r>
       <r>  -12.2695    1.0000 </r>
       <r>  -12.2542    1.0000 </r>
       <r>  -12.1958    1.0000 </r>
       <r>  -11.6165    1.0000 </r>
       <r>  -11.6111    1.0000 </r>
       <r>  -11.4879    1.0000 </r>
       <r>  -11.4530    1.0000 </r>
       <r>  -11.2345    1.0000 </r>
       <r>  -11.0966    1.0000 </r>
       <r>  -11.0922    1.0000 </r>
       <r>  -11.0579    1.0000 </r>
       <r>  -11.0543    1.0000 </r>
       <r>  -10.6556    1.0000 </r>
       <r>  -10.5161    1.0000 </r>
       <r>  -10.5037    1.0000 </r>
       <r>  -10.4042    1.0000 </r>
       <r>  -10.3975    1.0000 </r>
       <r>  -10.3953    1.0000 </r>
       <r>  -10.0327    1.0000 </r>
       <r>  -10.0100    1.0000 </r>
       <r>  -10.0072    1.0000 </r>
       <r>   -9.9817    1.0000 </r>
       <r>   -9.8409    1.0000 </r>
       <r>   -9.8390    1.0000 </r>
       <r>   -9.8092    1.0000 </r>
       <r>   -9.4769    1.0000 </r>
       <r>   -9.4755    1.0000 </r>
       <r>   -9.3773    1.0000 </r>
       <r>   -9.3476    1.0000 </r>
       <r>   -9.3399    1.0000 </r>
       <r>   -9.3091    1.0000 </r>
       <r>   -9.3050    1.0000 </r>
       <r>   -9.3039    1.0000 </r>
       <r>   -9.1900    1.0000 </r>
       <r>   -9.1884    1.0000 </r>
       <r>   -9.1859    1.0000 </r>
       <r>   -9.1727    1.0000 </r>
       <r>   -9.1699    1.0000 </r>
       <r>   -9.1680    1.0000 </r>
       <r>   -8.9807    1.0000 </r>
       <r>   -8.8255    1.0000 </r>
       <r>   -8.8231    1.0000 </r>
       <r>   -8.7824    1.0000 </r>
       <r>   -8.7413    1.0000 </r>
       <r>   -8.7400    1.0000 </r>
       <r>   -8.6875    1.0000 </r>
       <r>   -8.6544    1.0000 </r>
       <r>   -8.5222    1.0000 </r>
       <r>   -8.5180    1.0000 </r>
       <r>   -8.5119    1.0000 </r>
       <r>   -8.4841    1.0000 </r>
       <r>   -8.4827    1.0000 </r>
       <r>   -8.0656    1.0000 </r>
       <r>   -8.0636    1.0000 </r>
       <r>   -7.9624    1.0000 </r>
       <r>   -7.8820    1.0000 </r>
       <r>   -7.7704    1.0000 </r>
       <r>   -7.7555    1.0000 </r>
       <r>   -7.7302    1.0000 </r>
       <r>   -7.6463    1.0000 </r>
       <r>   -7.6217    1.0000 </r>
       <r>   -7.6205    1.0000 </r>
       <r>   -7.2854    1.0000 </r>
       <r>   -7.2825    1.0000 </r>
       <r>   -7.0821    1.0000 </r>
       <r>   -6.7713    1.0000 </r>
       <r>   -6.7697    1.0000 </r>
       <r>   -5.9567    1.0000 </r>
       <r>   -5.9188    1.0000 </r>
       <r>   -5.9162    1.0000 </r>
       <r>   -5.8413    1.0000 </r>
       <r>   -5.8375    1.0000 </r>
       <r>   -5.8237    1.0000 </r>
       <r>   -5.7627    1.0000 </r>
       <r>   -5.7575    1.0000 </r>
       <r>   -5.6676    1.0000 </r>
       <r>   -5.6654    1.0000 </r>
       <r>   -5.5307    1.0000 </r>
       <r>   -5.5192    1.0000 </r>
       <r>   -5.5178    1.0000 </r>
       <r>   -5.3445    1.0000 </r>
       <r>   -5.3433    1.0000 </r>
       <r>   -5.3425    1.0000 </r>
       <r>   -2.8605    0.0000 </r>
       <r>   -2.8580    0.0000 </r>
       <r>   -2.3692    0.0000 </r>
       <r>   -2.1889    0.0000 </r>
       <r>   -2.1768    0.0000 </r>
       <r>   -1.4077    0.0000 </r>
       <r>   -0.8045    0.0000 </r>
       <r>   -0.8002    0.0000 </r>
       <r>   -0.7679    0.0000 </r>
       <r>   -0.7331    0.0000 </r>
       <r>   -0.7291    0.0000 </r>
       <r>   -0.3668    0.0000 </r>
       <r>   -0.1780    0.0000 </r>
       <r>   -0.1763    0.0000 </r>
       <r>   -0.0570    0.0000 </r>
       <r>   -0.0558    0.0000 </r>
       <r>   -0.0031    0.0000 </r>
       <r>   -0.0016    0.0000 </r>
       <r>    0.0408    0.0000 </r>
       <r>    0.1512    0.0000 </r>
       <r>    0.3717    0.0000 </r>
       <r>    0.3992    0.0000 </r>
       <r>    0.4035    0.0000 </r>
       <r>    0.5759    0.0000 </r>
       <r>    0.6113    0.0000 </r>
       <r>    0.6949    0.0000 </r>
       <r>    0.7255    0.0000 </r>
       <r>    0.7291    0.0000 </r>
       <r>    0.7894    0.0000 </r>
       <r>    0.7916    0.0000 </r>
       <r>    0.8256    0.0000 </r>
       <r>    0.8334    0.0000 </r>
       <r>    0.8506    0.0000 </r>
       <r>    0.9296    0.0000 </r>
       <r>    1.0461    0.0000 </r>
       <r>    1.0701    0.0000 </r>
       <r>    1.0722    0.0000 </r>
       <r>    1.0820    0.0000 </r>
       <r>    1.0925    0.0000 </r>
       <r>    1.1104    0.0000 </r>
       <r>    1.1206    0.0000 </r>
       <r>    1.1293    0.0000 </r>
       <r>    1.1447    0.0000 </r>
       <r>    1.1677    0.0000 </r>
       <r>    1.2718    0.0000 </r>
       <r>    1.2827    0.0000 </r>
       <r>    1.3347    0.0000 </r>
       <r>    1.3611    0.0000 </r>
       <r>    1.3982    0.0000 </r>
       <r>    1.4173    0.0000 </r>
       <r>    1.5077    0.0000 </r>
       <r>    1.6023    0.0000 </r>
       <r>    1.6060    0.0000 </r>
       <r>    1.6496    0.0000 </r>
       <r>    1.6603    0.0000 </r>
       <r>    1.7018    0.0000 </r>
       <r>    1.7646    0.0000 </r>
      </set>
      <set comment="kpoint 4">
       <r>  -25.4650    1.0000 </r>
       <r>  -25.3918    1.0000 </r>
       <r>  -23.6347    1.0000 </r>
       <r>  -23.6288    1.0000 </r>
       <r>  -23.5911    1.0000 </r>
       <r>  -23.5903    1.0000 </r>
       <r>  -22.4928    1.0000 </r>
       <r>  -22.4154    1.0000 </r>
       <r>  -21.6038    1.0000 </r>
       <r>  -21.6018    1.0000 </r>
       <r>  -21.3725    1.0000 </r>
       <r>  -21.3621    1.0000 </r>
       <r>  -21.1804    1.0000 </r>
       <r>  -21.0125    1.0000 </r>
       <r>  -21.0084    1.0000 </r>
       <r>  -19.5857    1.0000 </r>
       <r>  -19.5843    1.0000 </r>
       <r>  -19.5817    1.0000 </r>
       <r>  -19.2371    1.0000 </r>
       <r>  -19.2362    1.0000 </r>
       <r>  -19.1574    1.0000 </r>
[...]
       <r>   -23.7314     0.0000     4.0000 </r>
       <r>   -23.6315    20.2640     6.0232 </r>
       <r>   -23.5317    40.0625    12.0000 </r>
       <r>   -23.4318     0.0000    12.0000 </r>
       <r>   -23.3320     0.0000    12.0000 </r>
       <r>   -23.2321     0.0000    12.0000 </r>
       <r>   -23.1323     0.0000    12.0000 </r>
       <r>   -23.0325     0.0000    12.0000 </r>
       <r>   -22.9326     0.0000    12.0000 </r>
       <r>   -22.8328     0.0000    12.0000 </r>
       <r>   -22.7329     0.0000    12.0000 </r>
       <r>   -22.6331     0.0000    12.0000 </r>
       <r>   -22.5332     0.0000    12.0000 </r>
       <r>   -22.4334    25.9818    14.5941 </r>
       <r>   -22.3335     0.0000    16.0000 </r>
       <r>   -22.2337     0.0000    16.0000 </r>
       <r>   -22.1339     0.0000    16.0000 </r>
       <r>   -22.0340     0.0000    16.0000 </r>
       <r>   -21.9342     0.0000    16.0000 </r>
       <r>   -21.8343     0.0000    16.0000 </r>
       <r>   -21.7345     0.0000    16.0000 </r>
       <r>   -21.6346     0.0001    16.0000 </r>
       <r>   -21.5348    36.7966    19.6739 </r>
       <r>   -21.4349    11.7923    21.1774 </r>
       <r>   -21.3351    26.3735    23.9999 </r>
       <r>   -21.2353     0.0000    24.0000 </r>
       <r>   -21.1354     7.3982    24.7387 </r>
       <r>   -21.0356    21.7792    27.1412 </r>
       <r>   -20.9357    24.0328    30.0000 </r>
       <r>   -20.8359     0.0000    30.0000 </r>
       <r>   -20.7360     0.0000    30.0000 </r>
       <r>   -20.6362     0.0000    30.0000 </r>
       <r>   -20.5363     0.0000    30.0000 </r>
       <r>   -20.4365     0.0000    30.0000 </r>
       <r>   -20.3367     0.0000    30.0000 </r>
       <r>   -20.2368     0.0000    30.0000 </r>
       <r>   -20.1370     0.0000    30.0000 </r>
       <r>   -20.0371     0.0000    30.0000 </r>
       <r>   -19.9373     0.0000    30.0000 </r>
       <r>   -19.8374     0.0000    30.0000 </r>
       <r>   -19.7376     0.0000    30.0000 </r>
       <r>   -19.6378     0.0000    30.0000 </r>
       <r>   -19.5379    60.0937    36.0000 </r>
       <r>   -19.4381     0.0000    36.0000 </r>
       <r>   -19.3382     0.0000    36.0000 </r>
       <r>   -19.2384    10.5954    37.0579 </r>
       <r>   -19.1385    31.3634    41.9984 </r>
       <r>   -19.0387     0.0000    42.0000 </r>
       <r>   -18.9388     0.0000    42.0000 </r>
       <r>   -18.8390     0.0000    42.0000 </r>
       <r>   -18.7392     0.0000    42.0000 </r>
       <r>   -18.6393     0.0000    42.0000 </r>
       <r>   -18.5395     0.0000    42.0000 </r>
       <r>   -18.4396     0.0000    42.0000 </r>
       <r>   -18.3398     0.0000    42.0000 </r>
       <r>   -18.2399     0.0000    42.0000 </r>
       <r>   -18.1401     0.0000    42.0000 </r>
       <r>   -18.0402     0.0000    42.0000 </r>
       <r>   -17.9404     0.0000    42.0000 </r>
       <r>   -17.8406     0.0000    42.0000 </r>
       <r>   -17.7407     0.0000    42.0000 </r>
       <r>   -17.6409    17.1400    43.7113 </r>
       <r>   -17.5410    73.4974    52.0051 </r>
       <r>   -17.4412    15.6601    53.9971 </r>
       <r>   -17.3413     0.0000    54.0000 </r>
       <r>   -17.2415     0.0000    54.0000 </r>
       <r>   -17.1416     0.0000    54.0000 </r>
       <r>   -17.0418     0.0000    54.0000 </r>
       <r>   -16.9420    42.7764    58.2710 </r>
       <r>   -16.8421    29.3783    62.0000 </r>
       <r>   -16.7423     0.0000    62.0000 </r>
       <r>   -16.6424     0.0000    62.0000 </r>
       <r>   -16.5426    15.9150    63.5890 </r>
       <r>   -16.4427    10.3477    66.0000 </r>
       <r>   -16.3429     0.0000    66.0000 </r>
       <r>   -16.2431     0.0000    66.0000 </r>
       <r>   -16.1432     0.0000    66.0000 </r>
       <r>   -16.0434     0.0000    66.0000 </r>
       <r>   -15.9435    23.6093    68.3572 </r>
       <r>   -15.8437     3.1628    68.7492 </r>
       <r>   -15.7438     3.4263    69.1421 </r>
       <r>   -15.6440     4.8711    69.8864 </r>
       <r>   -15.5441     4.4549    70.4449 </r>
       <r>   -15.4443     5.1121    71.1104 </r>
       <r>   -15.3445    59.9863    77.1893 </r>
       <r>   -15.2446     1.9018    77.4566 </r>
       <r>   -15.1448     1.6749    77.6672 </r>
       <r>   -15.0449     1.6636    77.8661 </r>
       <r>   -14.9451    22.0208    80.1320 </r>
       <r>   -14.8452     1.5797    80.3244 </r>
       <r>   -14.7454     1.5652    80.5229 </r>
       <r>   -14.6455     1.7036    80.7368 </r>
       <r>   -14.5457     1.7625    80.9760 </r>
       <r>   -14.4459     6.3235    81.6647 </r>
       <r>   -14.3460     4.0845    82.1745 </r>
       <r>   -14.2462     6.7054    82.9362 </r>
       <r>   -14.1463     2.4808    83.2478 </r>
       <r>   -14.0465     2.4960    83.5492 </r>
       <r>   -13.9466     3.6723    84.0000 </r>
       <r>   -13.8468     0.0000    84.0000 </r>
       <r>   -13.7469     0.0000    84.0000 </r>
       <r>   -13.6471    19.0102    85.8981 </r>
       <r>   -13.5473     4.8148    86.7808 </r>
       <r>   -13.4474    29.7481    89.9370 </r>
       <r>   -13.3476    14.5260    91.7172 </r>
       <r>   -13.2477    37.7474    95.7367 </r>
       <r>   -13.1479     0.4920    96.0491 </r>
       <r>   -13.0480    20.3208    98.8290 </r>
       <r>   -12.9482     7.8963    99.9218 </r>
       <r>   -12.8484     0.0000   100.0000 </r>
       <r>   -12.7485     0.0000   100.0000 </r>
       <r>   -12.6487     2.4052   100.2401 </r>
       <r>   -12.5488    20.0556   102.8026 </r>
       <r>   -12.4490     9.6877   104.0342 </r>
       <r>   -12.3491    10.5607   105.3545 </r>
       <r>   -12.2493     8.1298   106.3117 </r>
       <r>   -12.1494    15.6303   108.3607 </r>
       <r>   -12.0496     2.9967   108.7325 </r>
       <r>   -11.9498     5.9802   109.3971 </r>
       <r>   -11.8499     4.2974   110.0958 </r>
       <r>   -11.7501     8.1242   111.1446 </r>
       <r>   -11.6502     3.7197   111.6047 </r>
       <r>   -11.5504    22.7019   114.0000 </r>
       <r>   -11.4505    10.8582   115.0841 </r>
       <r>   -11.3507    19.9994   117.9970 </r>
       <r>   -11.2508    16.7356   119.6710 </r>
       <r>   -11.1510    18.6340   121.7607 </r>
       <r>   -11.0512    23.9600   124.5257 </r>
       <r>   -10.9513    13.7007   126.8013 </r>
       <r>   -10.8515    11.1688   128.0152 </r>
       <r>   -10.7516     9.4412   129.2427 </r>
       <r>   -10.6518     5.3831   129.9041 </r>
       <r>   -10.5519     0.0560   130.0056 </r>
       <r>   -10.4521    17.5260   132.4506 </r>
       <r>   -10.3523    62.4793   138.8049 </r>
       <r>   -10.2524    10.1903   139.8843 </r>
       <r>   -10.1526     5.8027   140.5794 </r>
       <r>   -10.0527     5.3505   141.5009 </r>
       <r>    -9.9529    61.7601   148.0000 </r>
       <r>    -9.8530     0.7426   148.0741 </r>
       <r>    -9.7532    35.7208   154.0000 </r>
       <r>    -9.6533     0.0000   154.0000 </r>
       <r>    -9.5535     0.0000   154.0000 </r>
       <r>    -9.4537    43.5343   158.3466 </r>
       <r>    -9.3538    20.0737   161.2043 </r>
       <r>    -9.2540    65.7597   168.7658 </r>
       <r>    -9.1541   130.0438   181.9175 </r>
       <r>    -9.0543    12.4853   183.2466 </r>
       <r>    -8.9544     6.3417   183.9999 </r>
       <r>    -8.8546     0.0002   184.0000 </r>
       <r>    -8.7547    60.9338   190.0839 </r>
       <r>    -8.6549    37.8463   196.2788 </r>
       <r>    -8.5551    22.8007   199.2433 </r>
       <r>    -8.4552    84.4614   207.9997 </r>
       <r>    -8.3554     0.0000   208.0000 </r>
       <r>    -8.2555     0.0000   208.0000 </r>
       <r>    -8.1557     0.0000   208.0000 </r>
       <r>    -8.0558    19.7215   209.9691 </r>
       <r>    -7.9560    29.2766   213.9232 </r>
       <r>    -7.8561    30.4365   217.0389 </r>
       <r>    -7.7563    20.9065   219.3875 </r>
       <r>    -7.6565    16.6618   221.7969 </r>
       <r>    -7.5566    28.9053   226.8860 </r>
       <r>    -7.4568    11.6254   228.1941 </r>
       <r>    -7.3569     8.7293   229.3049 </r>
       <r>    -7.2571    25.6865   231.9980 </r>
       <r>    -7.1572     0.0000   232.0000 </r>
       <r>    -7.0574     3.8898   232.3884 </r>
       <r>    -6.9576     5.7072   233.0699 </r>
       <r>    -6.8577     8.7901   234.4111 </r>
       <r>    -6.7579    29.4934   237.9115 </r>
       <r>    -6.6580     0.0000   238.0000 </r>
       <r>    -6.5582     0.0000   238.0000 </r>
       <r>    -6.4583     0.0000   238.0000 </r>
       <r>    -6.3585     0.0000   238.0000 </r>
       <r>    -6.2586     0.0000   238.0000 </r>
       <r>    -6.1588     0.0000   238.0000 </r>
       <r>    -6.0590     0.0000   238.0000 </r>
       <r>    -5.9591     1.5886   238.1586 </r>
       <r>    -5.8593    52.0214   244.1613 </r>
       <r>    -5.7594    53.7445   252.8667 </r>
       <r>    -5.6596    38.2867   257.8227 </r>
       <r>    -5.5597     0.0001   258.0000 </r>
       <r>    -5.4599    60.0936   264.0000 </r>
       <r>    -5.3600     0.7111   264.0710 </r>
       <r>    -5.2602     0.0000   270.0000 </r>
       <r>    -5.1604     0.0000   270.0000 </r>
       <r>    -5.0605     0.0000   270.0000 </r>
       <r>    -4.9607     0.0000   270.0000 </r>
       <r>    -4.8608     0.0000   270.0000 </r>
       <r>    -4.7610     0.0000   270.0000 </r>
       <r>    -4.6611     0.0000   270.0000 </r>
       <r>    -4.5613     0.0000   270.0000 </r>
       <r>    -4.4614     0.0000   270.0000 </r>
       <r>    -4.3616     0.0000   270.0000 </r>
       <r>    -4.2618     0.0000   270.0000 </r>
       <r>    -4.1619     0.0000   270.0000 </r>
       <r>    -4.0621     0.0000   270.0000 </r>
       <r>    -3.9622     0.0000   270.0000 </r>
       <r>    -3.8624     0.0000   270.0000 </r>
       <r>    -3.7625     0.0000   270.0000 </r>
       <r>    -3.6627     0.0000   270.0000 </r>
       <r>    -3.5629     0.0000   270.0000 </r>
       <r>    -3.4630     0.0000   270.0000 </r>
       <r>    -3.3632     0.0000   270.0000 </r>
       <r>    -3.2633     0.0000   270.0000 </r>
       <r>    -3.1635     0.0000   270.0000 </r>
       <r>    -3.0636     0.0000   270.0000 </r>
       <r>    -2.9638     0.0000   270.0000 </r>
       <r>    -2.8639     5.5381   270.5529 </r>
       <r>    -2.7641     8.4788   273.2800 </r>
       <r>    -2.6643     5.0472   274.1706 </r>
       <r>    -2.5644     7.2876   275.1610 </r>
       <r>    -2.4646     2.6924   275.5022 </r>
       <r>    -2.3647     3.1340   275.8796 </r>
       <r>    -2.2649     0.0000   276.0000 </r>
       <r>    -2.1650    22.0886   278.2054 </r>
       <r>    -2.0652     2.3639   278.5027 </r>
       <r>    -1.9653     2.0503   278.7714 </r>
       <r>    -1.8655     3.1481   279.1144 </r>
       <r>    -1.7657     5.4157   279.9408 </r>
       <r>    -1.6658     4.4486   280.4442 </r>
       <r>    -1.5660     5.4951   281.1487 </r>
       <r>    -1.4661     3.0205   281.5016 </r>
       <r>    -1.3663     4.3396   282.0000 </r>
       <r>    -1.2664     0.0000   282.0000 </r>
       <r>    -1.1666     0.0000   282.0000 </r>
       <r>    -1.0668     0.0000   282.0000 </r>
       <r>    -0.9669     0.0000   282.0000 </r>
       <r>    -0.8671     0.0000   282.0000 </r>
       <r>    -0.7672    51.5923   287.1512 </r>
       <r>    -0.6674    26.3476   290.6307 </r>
       <r>    -0.5675     5.2791   291.2604 </r>
       <r>    -0.4677     4.3393   292.0000 </r>
       <r>    -0.3678    12.1892   293.2170 </r>
       <r>    -0.2680     8.8139   294.8800 </r>
       <r>    -0.1682    37.3633   299.2306 </r>
       <r>    -0.0683    15.3534   301.4997 </r>
       <r>     0.0315    16.5502   303.5858 </r>
       <r>     0.1314    15.8322   305.7475 </r>
       <r>     0.2312    26.3082   308.9601 </r>
       <r>     0.3311    15.2088   310.9186 </r>
       <r>     0.4309    31.3883   314.3340 </r>
       <r>     0.5308    31.7386   317.9357 </r>
       <r>     0.6306    28.7143   321.3671 </r>
       <r>     0.7304    36.4405   325.8719 </r>
       <r>     0.8303    49.5833   331.7841 </r>
       <r>     0.9301    41.9878   337.1925 </r>
       <r>     1.0300    35.9039   341.6849 </r>
       <r>     1.1298    53.5817   348.1833 </r>
       <r>     1.2297    47.0387   354.3969 </r>
       <r>     1.3295    51.5235   360.4445 </r>
       <r>     1.4294    52.3042   366.5226 </r>
       <r>     1.5292    39.7938   371.7068 </r>
       <r>     1.6290    53.9452   378.1197 </r>
       <r>     1.7289    36.1510   383.5103 </r>
       <r>     1.8287     4.0060   384.0000 </r>
       <r>     1.9286     0.0000   384.0000 </r>
       <r>     2.0284     0.0000   384.0000 </r>
       <r>     2.1283     0.0000   384.0000 </r>
       <r>     2.2281     0.0000   384.0000 </r>
       <r>     2.3279     0.0000   384.0000 </r>
       <r>     2.4278     0.0000   384.0000 </r>
       <r>     2.5276     0.0000   384.0000 </r>
       <r>     2.6275     0.0000   384.0000 </r>
       <r>     2.7273     0.0000   384.0000 </r>
       <r>     2.8272     0.0000   384.0000 </r>
       <r>     2.9270     0.0000   384.0000 </r>
       <r>     3.0269     0.0000   384.0000 </r>
       <r>     3.1267     0.0000   384.0000 </r>
      </set>
     </set>
    </array>
   </total>
  </dos>
 </calculation>
 <structure name="finalpos" >
  <crystal>
   <varray name="basis" >
    <v>      21.81906973      -0.02952961       0.00000000 </v>
    <v>     -10.93507750      18.94264315       0.00000000 </v>
    <v>       0.00000000       0.00000000      20.00000000 </v>
   </varray>
   <i name="volume">   8259.75886293 </i>
   <varray name="rec_basis" >
    <v>       0.04586730       0.02647796       0.00000000 </v>
    <v>       0.00007150       0.05283222       0.00000000 </v>
    <v>       0.00000000       0.00000000       0.05000000 </v>
   </varray>
  </crystal>
  <varray name="positions" >
   <v>       0.08944802       0.53612716       0.50362256 </v>
   <v>       0.04951077       0.46175958       0.51117063 </v>
   <v>       0.08602783       0.41942427       0.52312329 </v>
   <v>       0.16686801       0.56836198       0.50246068 </v>
   <v>       0.05606701       0.57707572       0.49620762 </v>
   <v>       0.09732831       0.65584283       0.48483813 </v>
   <v>       0.28151647       0.64918158       0.53089568 </v>
   <v>       0.37253081       0.62733834       0.53052104 </v>
   <v>       0.35926013       0.93414330       0.52382458 </v>
   <v>       0.36493792       0.43664220       0.48455499 </v>
   <v>       0.39458117       0.74002644       0.53137969 </v>
   <v>       0.47328644       0.93158145       0.50451233 </v>
   <v>       0.43833225       0.97102168       0.51189553 </v>
   <v>       0.47752151       0.04529003       0.51113326 </v>
   <v>       0.43843687       0.08570873       0.51555748 </v>
   <v>       0.42833977       0.85431612       0.50325505 </v>
   <v>       0.48528326       0.54838432       0.50329025 </v>
   <v>       0.45337159       0.59367358       0.50207904 </v>
   <v>       0.47819765       0.43417734       0.49751900 </v>
   <v>       0.44388737       0.47406716       0.49592546 </v>
   <v>       0.43394715       0.35441543       0.49484762 </v>
   <v>       0.74955331       0.35969395       0.53462576 </v>
   <v>       0.63557343       0.27074138       0.53495054 </v>
   <v>       0.66046756       0.38435344       0.53486790 </v>
   <v>       0.55979142       0.58266055       0.51092367 </v>
   <v>       0.59440641       0.54302092       0.51044393 </v>
   <v>       0.67406889       0.58148863       0.51526416 </v>
   <v>       0.60265338       0.66150714       0.52279689 </v>
   <v>       0.97507509       0.42683337       0.51048119 </v>
   <v>       0.93410034       0.34733816       0.51507479 </v>
   <v>       0.55225320       0.07915542       0.50486252 </v>
   <v>       0.58727114       0.03954478       0.49853462 </v>
   <v>       0.54782254       0.96529667       0.49721969 </v>
   <v>       0.66727468       0.07600109       0.49579581 </v>
   <v>       0.58588700       0.92452179       0.48620769 </v>
   <v>       0.59714538       0.15630748       0.50327143 </v>
   <v>       0.55293638       0.46851031       0.50412373 </v>
   <v>       0.58470157       0.42319381       0.50271521 </v>
   <v>       0.94158557       0.46786240       0.50413244 </v>
   <v>       0.98167816       0.54244987       0.49767034 </v>
   <v>       0.94552669       0.58609072       0.49496061 </v>
   <v>       0.86431380       0.43579677       0.50260849 </v>
   <v>       0.14142029       0.45227375       0.53838416 </v>
   <v>       0.05920553       0.38038855       0.56300931 </v>
   <v>       0.08488260       0.38959088       0.47825464 </v>
   <v>       0.18853683       0.53985049       0.47464729 </v>
   <v>       0.15134454       0.67395276       0.46779331 </v>
   <v>       0.07063962       0.67173089       0.44797260 </v>
   <v>       0.10235849       0.68496003       0.53136247 </v>
   <v>       0.33697058       0.87888990       0.53897701 </v>
   <v>       0.34680571       0.96064612       0.56380638 </v>
   <v>       0.33038642       0.93517756       0.47900039 </v>
   <v>       0.37820038       0.83258587       0.47516105 </v>
   <v>       0.38483249       0.33563910       0.52353948 </v>
   <v>       0.34878176       0.39410431       0.44763028 </v>
   <v>       0.33571965       0.41246613       0.53106621 </v>
   <v>       0.38789579       0.05810224       0.48854226 </v>
   <v>       0.42636236       0.09140201       0.56790095 </v>
   <v>       0.46957598       0.13940326       0.49598675 </v>
   <v>       0.46128228       0.32826697       0.51574640 </v>
   <v>       0.41813298       0.33515508       0.44323258 </v>
   <v>       0.34698934       0.47258237       0.46764076 </v>
   <v>       0.69755626       0.63163243       0.48772160 </v>
   <v>       0.69160340       0.59405402       0.56765006 </v>
   <v>       0.69644057       0.54988157       0.49656226 </v>
   <v>       0.56998838       0.68426032       0.53769021 </v>
   <v>       0.64149302       0.67364276       0.56292764 </v>
   <v>       0.63296170       0.69006692       0.47801868 </v>
   <v>       0.48218560       0.64385240       0.47428590 </v>
   <v>       0.96147035       0.32420574       0.48815749 </v>
   <v>       0.92826022       0.32966416       0.56745906 </v>
   <v>       0.88029904       0.32485887       0.49550695 </v>
   <v>       0.69307597       0.12929615       0.51709176 </v>
   <v>       0.68655177       0.04594862       0.52403038 </v>
   <v>       0.68662122       0.08018531       0.44410620 </v>
   <v>       0.55010842       0.87026187       0.47002325 </v>
   <v>       0.62812716       0.95084552       0.44887719 </v>
   <v>       0.61074480       0.92058354       0.53270804 </v>
   <v>       0.64433309       0.17777694       0.47088535 </v>
   <v>       0.55888341       0.37622535       0.47019683 </v>
   <v>       0.89223535       0.55875011       0.51656499 </v>
   <v>       0.97601664       0.63554246       0.52295434 </v>
   <v>       0.94108244       0.60097590       0.44325570 </v>
   <v>       0.84292568       0.46149913       0.47025628 </v>
   <v>       0.20923761       0.62660243       0.53245996 </v>
   <v>       0.32513614       0.71952612       0.53211332 </v>
   <v>       0.30202780       0.60043220       0.53094257 </v>
   <v>       0.42149788       0.69661676       0.53143495 </v>
   <v>       0.39503856       0.57782208       0.53199902 </v>
   <v>       0.44426277       0.81209960       0.53334838 </v>
   <v>       0.70457025       0.28952191       0.53511176 </v>
   <v>       0.61016123       0.31550386       0.53550565 </v>
   <v>       0.73080684       0.40973777       0.53517139 </v>
   <v>       0.82138524       0.38104129       0.53684279 </v>
   <v>       0.63936948       0.43483959       0.53710715 </v>
   <v>       0.58507133       0.19905662       0.53742280 </v>
  </varray>
 </structure>
</modeling>
