<?xml version="1.0" encoding="ISO-8859-1"?>
<modeling>
 <generator>
  <i name="program" type="string">vasp </i>
  <i name="version" type="string">5.4.4.18Apr17-6-g9f103f2a35  </i>
  <i name="subversion" type="string">(build Jun 07 2020 16:50:00) complex            parallel </i>
  <i name="platform" type="string">LinuxIFC </i>
  <i name="date" type="string">2023 02 15 </i>
  <i name="time" type="string">01:00:41 </i>
 </generator>
 <incar>
  <i type="string" name="SYSTEM">Simulation for cell shape cell volume r</i>
  <i type="int" name="ISTART">     1</i>
  <i type="string" name="PREC">high</i>
  <i type="string" name="ALGO">48</i>
  <i type="int" name="ICHARG">    11</i>
  <i type="int" name="NELM">   200</i>
  <i type="int" name="IBRION">    -1</i>
  <i name="EDIFF">      0.00001000</i>
  <i name="EDIFFG">     -0.01000000</i>
  <i type="int" name="NSW">     0</i>
  <i type="int" name="ISIF">     2</i>
  <i name="ENCUT">    500.00000000</i>
  <i name="POTIM">      0.30000000</i>
  <i type="string" name="LREAL">A</i>
  <i type="int" name="ISMEAR">     0</i>
  <i name="SIGMA">      0.01000000</i>
  <i type="int" name="NWRITE">     0</i>
  <i type="logical" name="LWAVE"> F  </i>
  <i type="logical" name="LCHARG"> F  </i>
  <v type="int" name="KPOINT_BSE">    -1     0     0     0</v>
  <i type="int" name="NELM">   200</i>
  <i type="string" name="GGA">PE</i>
 </incar>
 <structure name="primitive_cell" >
  <crystal>
   <varray name="basis" >
    <v>      14.30724587      -0.01705850       0.00000000 </v>
    <v>      -7.16828509      12.38916832       0.00000000 </v>
    <v>       0.00000000       0.00000000      20.00000000 </v>
   </varray>
   <i name="volume">   3542.65194249 </i>
   <varray name="rec_basis" >
    <v>       0.06994290       0.04046847       0.00000000 </v>
    <v>       0.00009630       0.08077139       0.00000000 </v>
    <v>       0.00000000       0.00000000       0.05000000 </v>
   </varray>
  </crystal>
  <varray name="positions" >
   <v>       0.07109314      -0.38002121      -0.41318346 </v>
   <v>      -0.03660243      -0.43409201      -0.41434905 </v>
   <v>       0.12136305      -0.43383416      -0.43138003 </v>
   <v>      -0.07831634      -0.38998826      -0.40232598 </v>
   <v>      -0.09530271       0.45493187      -0.42939914 </v>
   <v>       0.06237291       0.45653496      -0.45153151 </v>
   <v>       0.24094089      -0.37496465      -0.42947579 </v>
   <v>       0.29402562      -0.26671803      -0.42940061 </v>
   <v>      -0.04543296       0.40072860      -0.44761558 </v>
   <v>       0.23139814      -0.14470212      -0.36179121 </v>
   <v>       0.28791674      -0.43586010      -0.42865840 </v>
   <v>       0.21698656      -0.09866870      -0.45874788 </v>
   <v>       0.21899979      -0.08369605      -0.38717946 </v>
   <v>      -0.21537527       0.39407925      -0.42670115 </v>
   <v>       0.13891667      -0.09659544      -0.37459280 </v>
   <v>       0.11214791       0.39857173      -0.48753796 </v>
   <v>       0.30426882      -0.09234060      -0.48858701 </v>
   <v>       0.40210633      -0.21945542      -0.42923913 </v>
   <v>      -0.26445643       0.45318090      -0.42628724 </v>
   <v>       0.13690779       0.41987421       0.45394433 </v>
   <v>       0.16409848       0.38108970      -0.35984873 </v>
   <v>       0.30268012      -0.11707150       0.45304156 </v>
   <v>       0.02058832       0.28868766      -0.37109163 </v>
   <v>       0.39626098      -0.38033412      -0.42880834 </v>
   <v>       0.10251650       0.30725997      -0.38478267 </v>
   <v>       0.28133680      -0.00148404      -0.37300078 </v>
   <v>       0.11796320       0.31830180      -0.45638203 </v>
   <v>      -0.26597035       0.28583184      -0.42630907 </v>
   <v>       0.41135583      -0.04182784      -0.45157970 </v>
   <v>       0.45740421      -0.27223745      -0.42822450 </v>
   <v>       0.46261149      -0.09992777      -0.43110707 </v>
   <v>      -0.37278590       0.39529448      -0.42631086 </v>
   <v>       0.11399556       0.23965905      -0.37109388 </v>
   <v>      -0.26829090      -0.26278439      -0.36870451 </v>
   <v>      -0.37436404       0.23655614      -0.42627096 </v>
   <v>       0.45507539      -0.44084225      -0.43066472 </v>
   <v>       0.46262317       0.06587265      -0.44742034 </v>
   <v>      -0.37920798      -0.44119706      -0.44640558 </v>
   <v>      -0.43323308      -0.04886318      -0.41256956 </v>
   <v>       0.40098765       0.45457702      -0.41322931 </v>
   <v>      -0.43209593       0.28691654      -0.42566412 </v>
   <v>      -0.43364263       0.45425480      -0.42888964 </v>
   <v>      -0.29430564       0.10121620      -0.40143375 </v>
   <v>      -0.28645761      -0.19936564      -0.38275267 </v>
   <v>      -0.21887580      -0.12009915      -0.36888377 </v>
   <v>      -0.29653112      -0.19494083      -0.45440992 </v>
   <v>      -0.43325439       0.11654303      -0.42882916 </v>
   <v>      -0.43497313      -0.38940813      -0.45026665 </v>
   <v>      -0.38022667       0.05878308      -0.41363718 </v>
   <v>      -0.36057989      -0.21167814      -0.35829459 </v>
   <v>      -0.37667210      -0.28112192      -0.48581200 </v>
   <v>      -0.39753122      -0.27744755       0.45561527 </v>
   <v>       0.45506651       0.40120161      -0.41458386 </v>
   <v>       0.41069043       0.31495563      -0.40338842 </v>
  </varray>
 </structure>
 <varray name="primitive_index" >
  <v type="int" >        1 </v>
  <v type="int" >       36 </v>
  <v type="int" >       13 </v>
  <v type="int" >       48 </v>
  <v type="int" >       33 </v>
  <v type="int" >       14 </v>
  <v type="int" >       17 </v>
  <v type="int" >        2 </v>
  <v type="int" >       10 </v>
  <v type="int" >       45 </v>
  <v type="int" >        3 </v>
  <v type="int" >       52 </v>
  <v type="int" >       32 </v>
  <v type="int" >       21 </v>
  <v type="int" >       40 </v>
  <v type="int" >       15 </v>
  <v type="int" >       31 </v>
  <v type="int" >       18 </v>
  <v type="int" >        6 </v>
  <v type="int" >       49 </v>
  <v type="int" >       38 </v>
  <v type="int" >       51 </v>
  <v type="int" >       37 </v>
  <v type="int" >       19 </v>
  <v type="int" >       16 </v>
  <v type="int" >       41 </v>
  <v type="int" >       50 </v>
  <v type="int" >        5 </v>
  <v type="int" >       30 </v>
  <v type="int" >        4 </v>
  <v type="int" >       28 </v>
  <v type="int" >       22 </v>
  <v type="int" >       39 </v>
  <v type="int" >       43 </v>
  <v type="int" >       20 </v>
  <v type="int" >       23 </v>
  <v type="int" >        9 </v>
  <v type="int" >        8 </v>
  <v type="int" >       12 </v>
  <v type="int" >       11 </v>
  <v type="int" >        7 </v>
  <v type="int" >       24 </v>
  <v type="int" >       47 </v>
  <v type="int" >       27 </v>
  <v type="int" >       42 </v>
  <v type="int" >       54 </v>
  <v type="int" >       29 </v>
  <v type="int" >       25 </v>
  <v type="int" >       35 </v>
  <v type="int" >       44 </v>
  <v type="int" >       26 </v>
  <v type="int" >       53 </v>
  <v type="int" >       34 </v>
  <v type="int" >       46 </v>
 </varray>
 <kpoints>
  <generation param="listgenerated">
   <i name="divisions" type="int">      20 </i>
   <v>       0.00000000       0.00000000       0.00000000 </v>
   <v>       0.50000000       0.00000000       0.00000000 </v>
   <v>       0.33333333       0.33333333       0.00000000 </v>
   <v>       0.00000000       0.00000000       0.00000000 </v>
  </generation>
  <varray name="kpointlist" >
   <v>       0.00000000       0.00000000       0.00000000 </v>
   <v>       0.02631579       0.00000000       0.00000000 </v>
   <v>       0.05263158       0.00000000       0.00000000 </v>
   <v>       0.07894737       0.00000000       0.00000000 </v>
   <v>       0.10526316       0.00000000       0.00000000 </v>
   <v>       0.13157895       0.00000000       0.00000000 </v>
   <v>       0.15789474       0.00000000       0.00000000 </v>
   <v>       0.18421053       0.00000000       0.00000000 </v>
   <v>       0.21052632       0.00000000       0.00000000 </v>
   <v>       0.23684211       0.00000000       0.00000000 </v>
   <v>       0.26315789       0.00000000       0.00000000 </v>
   <v>       0.28947368       0.00000000       0.00000000 </v>
   <v>       0.31578947       0.00000000       0.00000000 </v>
   <v>       0.34210526       0.00000000       0.00000000 </v>
   <v>       0.36842105       0.00000000       0.00000000 </v>
   <v>       0.39473684       0.00000000       0.00000000 </v>
   <v>       0.42105263       0.00000000       0.00000000 </v>
   <v>       0.44736842       0.00000000       0.00000000 </v>
   <v>       0.47368421       0.00000000       0.00000000 </v>
   <v>       0.50000000       0.00000000       0.00000000 </v>
   <v>       0.50000000       0.00000000       0.00000000 </v>
   <v>       0.49122807       0.01754386       0.00000000 </v>
   <v>       0.48245614       0.03508772       0.00000000 </v>
   <v>       0.47368421       0.05263158       0.00000000 </v>
   <v>       0.46491228       0.07017544       0.00000000 </v>
   <v>       0.45614035       0.08771930       0.00000000 </v>
   <v>       0.44736842       0.10526316       0.00000000 </v>
   <v>       0.43859649       0.12280702       0.00000000 </v>
   <v>       0.42982456       0.14035088       0.00000000 </v>
   <v>       0.42105263       0.15789474       0.00000000 </v>
   <v>       0.41228070       0.17543860       0.00000000 </v>
   <v>       0.40350877       0.19298246       0.00000000 </v>
   <v>       0.39473684       0.21052632       0.00000000 </v>
   <v>       0.38596491       0.22807018       0.00000000 </v>
   <v>       0.37719298       0.24561404       0.00000000 </v>
   <v>       0.36842105       0.26315789       0.00000000 </v>
   <v>       0.35964912       0.28070175       0.00000000 </v>
   <v>       0.35087719       0.29824561       0.00000000 </v>
   <v>       0.34210526       0.31578947       0.00000000 </v>
   <v>       0.33333333       0.33333333       0.00000000 </v>
   <v>       0.33333333       0.33333333       0.00000000 </v>
   <v>       0.31578947       0.31578947       0.00000000 </v>
   <v>       0.29824561       0.29824561       0.00000000 </v>
   <v>       0.28070175       0.28070175       0.00000000 </v>
   <v>       0.26315789       0.26315789       0.00000000 </v>
   <v>       0.24561404       0.24561404       0.00000000 </v>
   <v>       0.22807018       0.22807018       0.00000000 </v>
   <v>       0.21052632       0.21052632       0.00000000 </v>
   <v>       0.19298246       0.19298246       0.00000000 </v>
   <v>       0.17543860       0.17543860       0.00000000 </v>
   <v>       0.15789474       0.15789474       0.00000000 </v>
   <v>       0.14035088       0.14035088       0.00000000 </v>
   <v>       0.12280702       0.12280702       0.00000000 </v>
   <v>       0.10526316       0.10526316       0.00000000 </v>
   <v>       0.08771930       0.08771930       0.00000000 </v>
   <v>       0.07017544       0.07017544       0.00000000 </v>
   <v>       0.05263158       0.05263158       0.00000000 </v>
   <v>       0.03508772       0.03508772       0.00000000 </v>
   <v>       0.01754386       0.01754386       0.00000000 </v>
   <v>       0.00000000       0.00000000       0.00000000 </v>
  </varray>
  <varray name="weights" >
   <v>       0.01666667 </v>
   <v>       0.01666667 </v>
   <v>       0.01666667 </v>
   <v>       0.01666667 </v>
   <v>       0.01666667 </v>
   <v>       0.01666667 </v>
   <v>       0.01666667 </v>
   <v>       0.01666667 </v>
   <v>       0.01666667 </v>
   <v>       0.01666667 </v>
   <v>       0.01666667 </v>
   <v>       0.01666667 </v>
   <v>       0.01666667 </v>
   <v>       0.01666667 </v>
   <v>       0.01666667 </v>
   <v>       0.01666667 </v>
   <v>       0.01666667 </v>
   <v>       0.01666667 </v>
   <v>       0.01666667 </v>
   <v>       0.01666667 </v>
   <v>       0.01666667 </v>
   <v>       0.01666667 </v>
   <v>       0.01666667 </v>
   <v>       0.01666667 </v>
   <v>       0.01666667 </v>
   <v>       0.01666667 </v>
   <v>       0.01666667 </v>
   <v>       0.01666667 </v>
   <v>       0.01666667 </v>
   <v>       0.01666667 </v>
   <v>       0.01666667 </v>
   <v>       0.01666667 </v>
   <v>       0.01666667 </v>
   <v>       0.01666667 </v>
   <v>       0.01666667 </v>
   <v>       0.01666667 </v>
   <v>       0.01666667 </v>
   <v>       0.01666667 </v>
   <v>       0.01666667 </v>
   <v>       0.01666667 </v>
   <v>       0.01666667 </v>
   <v>       0.01666667 </v>
   <v>       0.01666667 </v>
   <v>       0.01666667 </v>
   <v>       0.01666667 </v>
   <v>       0.01666667 </v>
   <v>       0.01666667 </v>
   <v>       0.01666667 </v>
   <v>       0.01666667 </v>
   <v>       0.01666667 </v>
   <v>       0.01666667 </v>
   <v>       0.01666667 </v>
   <v>       0.01666667 </v>
   <v>       0.01666667 </v>
   <v>       0.01666667 </v>
   <v>       0.01666667 </v>
   <v>       0.01666667 </v>
   <v>       0.01666667 </v>
   <v>       0.01666667 </v>
   <v>       0.01666667 </v>
  </varray>
 </kpoints>
 <parameters>
  <separator name="general" >
   <i type="string" name="SYSTEM">Simulation for cell shape cell volume r</i>
   <i type="logical" name="LCOMPAT"> F  </i>
  </separator>
  <separator name="electronic" >
   <i type="string" name="PREC">high</i>
   <i name="ENMAX">    500.00000000</i>
   <i name="ENAUG">    644.87300000</i>
   <i name="EDIFF">      0.00001000</i>
   <i type="int" name="IALGO">    38</i>
   <i type="int" name="IWAVPR">    10</i>
   <i type="int" name="NBANDS">   144</i>
   <i name="NELECT">    204.00000000</i>
   <i type="int" name="TURBO">     0</i>
   <i type="int" name="IRESTART">     0</i>
   <i type="int" name="NREBOOT">     0</i>
   <i type="int" name="NMIN">     0</i>
   <i name="EREF">      0.00000000</i>
   <separator name="electronic smearing" >
    <i type="int" name="ISMEAR">     0</i>
    <i name="SIGMA">      0.01000000</i>
    <i name="KSPACING">      0.50000000</i>
    <i type="logical" name="KGAMMA"> T  </i>
   </separator>
   <separator name="electronic projectors" >
    <i type="logical" name="LREAL"> T  </i>
    <v name="ROPT">     -0.00040000     -0.00040000     -0.00040000     -0.00040000</v>
    <i type="int" name="LMAXPAW">  -100</i>
    <i type="int" name="LMAXMIX">     2</i>
    <i type="logical" name="NLSPLINE"> F  </i>
   </separator>
   <separator name="electronic startup" >
    <i type="int" name="ISTART">     1</i>
    <i type="int" name="ICHARG">    11</i>
    <i type="int" name="INIWAV">     1</i>
   </separator>
   <separator name="electronic spin" >
    <i type="int" name="ISPIN">     1</i>
    <i type="logical" name="LNONCOLLINEAR"> F  </i>
    <v name="MAGMOM">      1.00000000      1.00000000      1.00000000      1.00000000      1.00000000      1.00000000      1.00000000      1.00000000      1.00000000      1.00000000      1.00000000      1.00000000      1.00000000      1.00000000      1.00000000      1.00000000      1.00000000      1.00000000      1.00000000      1.00000000
      1.00000000      1.00000000      1.00000000      1.00000000      1.00000000      1.00000000      1.00000000      1.00000000      1.00000000      1.00000000      1.00000000      1.00000000      1.00000000      1.00000000      1.00000000      1.00000000      1.00000000      1.00000000      1.00000000      1.00000000
      1.00000000      1.00000000      1.00000000      1.00000000      1.00000000      1.00000000      1.00000000      1.00000000      1.00000000      1.00000000      1.00000000      1.00000000      1.00000000      1.00000000</v>
    <i name="NUPDOWN">     -1.00000000</i>
    <i type="logical" name="LSORBIT"> F  </i>
    <v name="SAXIS">      0.00000000      0.00000000      1.00000000</v>
    <i type="logical" name="LSPIRAL"> F  </i>
    <v name="QSPIRAL">      0.00000000      0.00000000      0.00000000</v>
    <i type="logical" name="LZEROZ"> F  </i>
   </separator>
   <separator name="electronic exchange-correlation" >
    <i type="logical" name="LASPH"> F  </i>
    <i type="logical" name="LMETAGGA"> F  </i>
   </separator>
   <separator name="electronic convergence" >
    <i type="int" name="NELM">   200</i>
    <i type="int" name="NELMDL">     0</i>
    <i type="int" name="NELMIN">     2</i>
    <i name="ENINI">    500.00000000</i>
    <separator name="electronic convergence detail" >
     <i type="logical" name="LDIAG"> T  </i>
     <i type="logical" name="LSUBROT"> F  </i>
     <i name="WEIMIN">      0.00000000</i>
     <i name="EBREAK">      0.00000002</i>
     <i name="DEPER">      0.30000000</i>
     <i type="int" name="NRMM">     4</i>
     <i name="TIME">      0.40000000</i>
    </separator>
   </separator>
   <separator name="electronic mixer" >
    <i name="AMIX">      0.40000000</i>
    <i name="BMIX">      1.00000000</i>
    <i name="AMIN">      0.10000000</i>
    <i name="AMIX_MAG">      1.60000000</i>
    <i name="BMIX_MAG">      1.00000000</i>
    <separator name="electronic mixer details" >
     <i type="int" name="IMIX">     4</i>
     <i type="logical" name="MIXFIRST"> F  </i>
     <i type="int" name="MAXMIX">   -45</i>
     <i name="WC">    100.00000000</i>
     <i type="int" name="INIMIX">     1</i>
     <i type="int" name="MIXPRE">     1</i>
     <i type="int" name="MREMOVE">     5</i>
    </separator>
   </separator>
   <separator name="electronic dipolcorrection" >
    <i type="logical" name="LDIPOL"> F  </i>
    <i type="logical" name="LMONO"> F  </i>
    <i type="int" name="IDIPOL">     0</i>
    <i name="EPSILON">      1.00000000</i>
    <v name="DIPOL">   -100.00000000   -100.00000000   -100.00000000</v>
    <i name="EFIELD">      0.00000000</i>
   </separator>
  </separator>
  <separator name="grids" >
   <i type="int" name="NGX">   108</i>
   <i type="int" name="NGY">   108</i>
   <i type="int" name="NGZ">   150</i>
   <i type="int" name="NGXF">   160</i>
   <i type="int" name="NGYF">   160</i>
   <i type="int" name="NGZF">   224</i>
   <i type="logical" name="ADDGRID"> F  </i>
  </separator>
  <separator name="ionic" >
   <i type="int" name="NSW">     0</i>
   <i type="int" name="IBRION">    -1</i>
   <i type="int" name="MDALGO">     0</i>
   <i type="int" name="ISIF">     2</i>
   <i name="PSTRESS">      0.00000000</i>
   <i name="EDIFFG">     -0.01000000</i>
   <i type="int" name="NFREE">     0</i>
   <i name="POTIM">      0.30000000</i>
   <i name="SMASS">     -3.00000000</i>
   <i name="SCALEE">      1.00000000</i>
  </separator>
  <separator name="ionic md" >
   <i name="TEBEG">      0.00010000</i>
   <i name="TEEND">      0.00010000</i>
   <i type="int" name="NBLOCK">     1</i>
   <i type="int" name="KBLOCK">     1</i>
   <i type="int" name="NPACO">   256</i>
   <i name="APACO">     16.00000000</i>
  </separator>
  <separator name="symmetry" >
   <i type="int" name="ISYM">     2</i>
   <i name="SYMPREC">      0.00001000</i>
  </separator>
  <separator name="dos" >
   <i type="int" name="LORBIT">     0</i>
   <v name="RWIGS">     -1.00000000     -1.00000000     -1.00000000     -1.00000000</v>
   <i type="int" name="NEDOS">   301</i>
   <i name="EMIN">     10.00000000</i>
   <i name="EMAX">    -10.00000000</i>
   <i name="EFERMI">      0.00000000</i>
  </separator>
  <separator name="writing" >
   <i type="int" name="NWRITE">     0</i>
   <i type="logical" name="LWAVE"> F  </i>
   <i type="logical" name="LDOWNSAMPLE"> F  </i>
   <i type="logical" name="LCHARG"> F  </i>
   <i type="logical" name="LPARD"> F  </i>
   <i type="logical" name="LVTOT"> F  </i>
   <i type="logical" name="LVHAR"> F  </i>
   <i type="logical" name="LELF"> F  </i>
   <i type="logical" name="LOPTICS"> F  </i>
   <v name="STM">      0.00000000      0.00000000      0.00000000      0.00000000      0.00000000      0.00000000      0.00000000</v>
  </separator>
  <separator name="performance" >
   <i type="int" name="NPAR">    16</i>
   <i type="int" name="NSIM">     4</i>
   <i type="int" name="NBLK">    -1</i>
   <i type="logical" name="LPLANE"> T  </i>
   <i type="logical" name="LSCALAPACK"> T  </i>
   <i type="logical" name="LSCAAWARE"> F  </i>
   <i type="logical" name="LSCALU"> F  </i>
   <i type="logical" name="LASYNC"> F  </i>
   <i type="logical" name="LORBITALREAL"> F  </i>
  </separator>
  <separator name="miscellaneous" >
   <i type="int" name="IDIOT">     3</i>
   <i type="int" name="ISPECIAL">     0</i>
   <i type="logical" name="LMUSIC"> F  </i>
   <v name="POMASS">     14.00100000     12.01100000      1.00000000     16.00000000</v>
   <v name="DARWINR">      0.00000000      0.00000000      0.00000000      0.00000000</v>
   <v name="DARWINV">      1.00000000      1.00000000      1.00000000      1.00000000</v>
   <i type="logical" name="LCORR"> T  </i>
  </separator>
  <i type="logical" name="GGA_COMPAT"> T  </i>
  <i type="logical" name="LBERRY"> F  </i>
  <i type="int" name="ICORELEVEL">     0</i>
  <i type="logical" name="LDAU"> F  </i>
  <i type="int" name="I_CONSTRAINED_M">     0</i>
  <separator name="electronic exchange-correlation" >
   <i type="string" name="GGA">PE</i>
   <i type="int" name="VOSKOWN">     0</i>
   <i type="logical" name="LHFCALC"> F  </i>
   <i type="string" name="PRECFOCK"></i>
   <i type="logical" name="LSYMGRAD"> F  </i>
   <i type="logical" name="LHFONE"> F  </i>
   <i type="logical" name="LRHFCALC"> F  </i>
   <i type="logical" name="LTHOMAS"> F  </i>
   <i type="logical" name="LMODELHF"> F  </i>
   <i name="ENCUT4O">     -1.00000000</i>
   <i type="int" name="EXXOEP">     0</i>
   <i type="int" name="FOURORBIT">     0</i>
   <i name="AEXX">      0.00000000</i>
   <i name="HFALPHA">      0.00000000</i>
   <i name="MCALPHA">      0.00000000</i>
   <i name="ALDAX">      1.00000000</i>
   <i name="AGGAX">      1.00000000</i>
   <i name="ALDAC">      1.00000000</i>
   <i name="AGGAC">      1.00000000</i>
   <i type="int" name="NKREDX">     1</i>
   <i type="int" name="NKREDY">     1</i>
   <i type="int" name="NKREDZ">     1</i>
   <i type="logical" name="SHIFTRED"> F  </i>
   <i type="logical" name="ODDONLY"> F  </i>
   <i type="logical" name="EVENONLY"> F  </i>
   <i type="int" name="LMAXFOCK">     0</i>
   <i type="int" name="NMAXFOCKAE">     0</i>
   <i type="logical" name="LFOCKAEDFT"> F  </i>
   <i name="HFSCREEN">      0.00000000</i>
   <i name="HFSCREENC">      0.00000000</i>
   <i type="int" name="NBANDSGWLOW">     0</i>
  </separator>
  <separator name="vdW DFT" >
   <i type="logical" name="LUSE_VDW"> F  </i>
   <i name="Zab_VDW">     -0.84910000</i>
   <i name="PARAM1">      0.12340000</i>
   <i name="PARAM2">      1.00000000</i>
   <i name="PARAM3">      0.00000000</i>
  </separator>
  <separator name="model GW" >
   <i type="int" name="MODEL_GW">     0</i>
   <i name="MODEL_EPS0">     39.36279936</i>
   <i name="MODEL_ALPHA">      1.00000000</i>
  </separator>
  <separator name="linear response parameters" >
   <i type="logical" name="LEPSILON"> F  </i>
   <i type="logical" name="LRPA"> F  </i>
   <i type="logical" name="LNABLA"> F  </i>
   <i type="logical" name="LVEL"> F  </i>
   <i type="int" name="KINTER">     0</i>
   <i name="CSHIFT">      0.10000000</i>
   <i name="OMEGAMAX">     -1.00000000</i>
   <i name="DEG_THRESHOLD">      0.00200000</i>
   <i name="RTIME">     -0.10000000</i>
   <i name="WPLASMAI">      0.00000000</i>
   <v name="DFIELD">      0.00000000      0.00000000      0.00000000</v>
   <v name="WPLASMA">      0.00000000      0.00000000      0.00000000      0.00000000      0.00000000      0.00000000      0.00000000      0.00000000      0.00000000</v>
  </separator>
  <separator name="orbital magnetization" >
   <i type="logical" name="NUCIND"> F  </i>
   <v name="MAGPOS">      0.00000000      0.00000000      0.00000000</v>
   <i type="logical" name="LNICSALL"> T  </i>
   <i type="logical" name="ORBITALMAG"> F  </i>
   <i type="logical" name="LMAGBLOCH"> F  </i>
   <i type="logical" name="LCHIMAG"> F  </i>
   <i type="logical" name="LGAUGE"> T  </i>
   <i type="int" name="MAGATOM">     0</i>
   <v name="MAGDIPOL">      0.00000000      0.00000000      0.00000000</v>
   <v name="AVECCONST">      0.00000000      0.00000000      0.00000000</v>
  </separator>
  <separator name="response functions" >
   <i type="logical" name="LADDER"> F  </i>
   <i type="logical" name="LRPAFORCE"> F  </i>
   <i type="logical" name="LFXC"> F  </i>
   <i type="logical" name="LHARTREE"> T  </i>
   <i type="int" name="IBSE">     0</i>
   <v type="int" name="KPOINT">    -1     0     0     0</v>
   <i type="logical" name="LTCTE"> F  </i>
   <i type="logical" name="LTETE"> F  </i>
   <i type="logical" name="LTRIPLET"> F  </i>
   <i type="logical" name="LFXCEPS"> F  </i>
   <i type="logical" name="LFXHEG"> F  </i>
   <i type="int" name="NATURALO">     2</i>
   <i type="logical" name="L2ORDER"> F  </i>
   <i type="logical" name="LMP2LT"> F  </i>
   <i type="logical" name="LUSEW"> F  </i>
   <i name="ENCUTGW">     -2.00000000</i>
   <i name="ENCUTGWSOFT">     -2.00000000</i>
   <i name="ENCUTLF">     -1.00000000</i>
   <i type="int" name="LMAXMP2">    -1</i>
   <i name="SCISSOR">      0.00000000</i>
   <i type="int" name="NOMEGA">     0</i>
   <i type="int" name="NOMEGAR">     0</i>
   <i type="int" name="NBANDSGW">    -1</i>
   <i type="int" name="NBANDSO">    -1</i>
   <i type="int" name="NBANDSV">    -1</i>
   <i type="int" name="NELM">   200</i>
   <i type="int" name="NELMHF">     1</i>
   <i type="int" name="DIM">     3</i>
   <i type="int" name="ANTIRES">     0</i>
   <i name="OMEGAMAX">    -30.00000000</i>
   <i name="OMEGAMIN">    -30.00000000</i>
   <i name="OMEGATL">   -200.00000000</i>
   <i type="int" name="OMEGAGRID">   140</i>
   <i name="CSHIFT">     -0.10000000</i>
   <i type="logical" name="SELFENERGY"> F  </i>
   <i type="logical" name="LSPECTRAL"> F  </i>
   <i type="logical" name="LSPECTRALGW"> F  </i>
   <i type="logical" name="LSINGLES"> F  </i>
   <i type="logical" name="LFERMIGW"> F  </i>
   <i type="logical" name="ODDONLYGW"> F  </i>
   <i type="logical" name="EVENONLYGW"> F  </i>
   <i type="int" name="NKREDLFX">     1</i>
   <i type="int" name="NKREDLFY">     1</i>
   <i type="int" name="NKREDLFZ">     1</i>
   <i type="int" name="MAXMEM">  2800</i>
   <i type="int" name="TELESCOPE">     0</i>
   <i type="int" name="TAUPAR">     1</i>
   <i type="int" name="OMEGAPAR">    -1</i>
   <i name="LAMBDA">      1.00000000</i>
  </separator>
  <separator name="External order field" >
   <i name="OFIELD_KAPPA">      0.00000000</i>
   <v name="OFIELD_K">      0.00000000      0.00000000      0.00000000</v>
   <i name="OFIELD_Q6_NEAR">      0.00000000</i>
   <i name="OFIELD_Q6_FAR">      0.00000000</i>
   <i name="OFIELD_A">      0.00000000</i>
  </separator>
  <separator name="solvation model" >
   <i type="logical" name="LSOL"> F  </i>
  </separator>
 </parameters>
 <atominfo>
  <atoms>      54 </atoms>
  <types>       4 </types>
  <array name="atoms" >
   <dimension dim="1">ion</dimension>
   <field type="string">element</field>
   <field type="int">atomtype</field>
   <set>
    <rc><c>N </c><c>   1</c></rc>
    <rc><c>N </c><c>   1</c></rc>
    <rc><c>N </c><c>   1</c></rc>
    <rc><c>N </c><c>   1</c></rc>
    <rc><c>N </c><c>   1</c></rc>
    <rc><c>N </c><c>   1</c></rc>
    <rc><c>N </c><c>   1</c></rc>
    <rc><c>N </c><c>   1</c></rc>
    <rc><c>N </c><c>   1</c></rc>
    <rc><c>N </c><c>   1</c></rc>
    <rc><c>N </c><c>   1</c></rc>
    <rc><c>N </c><c>   1</c></rc>
    <rc><c>C </c><c>   2</c></rc>
    <rc><c>C </c><c>   2</c></rc>
    <rc><c>C </c><c>   2</c></rc>
    <rc><c>C </c><c>   2</c></rc>
    <rc><c>C </c><c>   2</c></rc>
    <rc><c>C </c><c>   2</c></rc>
    <rc><c>C </c><c>   2</c></rc>
    <rc><c>C </c><c>   2</c></rc>
    <rc><c>C </c><c>   2</c></rc>
    <rc><c>C </c><c>   2</c></rc>
    <rc><c>C </c><c>   2</c></rc>
    <rc><c>C </c><c>   2</c></rc>
    <rc><c>C </c><c>   2</c></rc>
    <rc><c>C </c><c>   2</c></rc>
    <rc><c>C </c><c>   2</c></rc>
    <rc><c>C </c><c>   2</c></rc>
    <rc><c>C </c><c>   2</c></rc>
    <rc><c>C </c><c>   2</c></rc>
    <rc><c>C </c><c>   2</c></rc>
    <rc><c>C </c><c>   2</c></rc>
    <rc><c>C </c><c>   2</c></rc>
    <rc><c>C </c><c>   2</c></rc>
    <rc><c>C </c><c>   2</c></rc>
    <rc><c>C </c><c>   2</c></rc>
    <rc><c>H </c><c>   3</c></rc>
    <rc><c>H </c><c>   3</c></rc>
    <rc><c>H </c><c>   3</c></rc>
    <rc><c>H </c><c>   3</c></rc>
    <rc><c>H </c><c>   3</c></rc>
    <rc><c>H </c><c>   3</c></rc>
    <rc><c>H </c><c>   3</c></rc>
    <rc><c>H </c><c>   3</c></rc>
    <rc><c>H </c><c>   3</c></rc>
    <rc><c>H </c><c>   3</c></rc>
    <rc><c>H </c><c>   3</c></rc>
    <rc><c>H </c><c>   3</c></rc>
    <rc><c>O </c><c>   4</c></rc>
    <rc><c>O </c><c>   4</c></rc>
    <rc><c>O </c><c>   4</c></rc>
    <rc><c>O </c><c>   4</c></rc>
    <rc><c>O </c><c>   4</c></rc>
    <rc><c>O </c><c>   4</c></rc>
   </set>
  </array>
  <array name="atomtypes" >
   <dimension dim="1">type</dimension>
   <field type="int">atomspertype</field>
   <field type="string">element</field>
   <field>mass</field>
   <field>valence</field>
   <field type="string">pseudopotential</field>
   <set>
    <rc><c>  12</c><c>N </c><c>     14.00100000</c><c>      5.00000000</c><c>  PAW_PBE N 08Apr2002                   </c></rc>
    <rc><c>  24</c><c>C </c><c>     12.01100000</c><c>      4.00000000</c><c>  PAW_PBE C 08Apr2002                   </c></rc>
    <rc><c>  12</c><c>H </c><c>      1.00000000</c><c>      1.00000000</c><c>  PAW_PBE H 15Jun2001                   </c></rc>
    <rc><c>   6</c><c>O </c><c>     16.00000000</c><c>      6.00000000</c><c>  PAW_PBE O 08Apr2002                   </c></rc>
   </set>
  </array>
 </atominfo>
 <structure name="initialpos" >
  <crystal>
   <varray name="basis" >
    <v>      14.30724587      -0.01705850       0.00000000 </v>
    <v>      -7.16828509      12.38916832       0.00000000 </v>
    <v>       0.00000000       0.00000000      20.00000000 </v>
   </varray>
   <i name="volume">   3542.65194249 </i>
   <varray name="rec_basis" >
    <v>       0.06994290       0.04046847       0.00000000 </v>
    <v>       0.00009630       0.08077139       0.00000000 </v>
    <v>       0.00000000       0.00000000       0.05000000 </v>
   </varray>
  </crystal>
  <varray name="positions" >
   <v>       0.07109314       0.61997879       0.58681654 </v>
   <v>       0.29402562       0.73328197       0.57059939 </v>
   <v>       0.28791674       0.56413990       0.57134160 </v>
   <v>       0.45740421       0.72776255       0.57177550 </v>
   <v>       0.73402965       0.28583184       0.57369093 </v>
   <v>       0.73554357       0.45318090       0.57371276 </v>
   <v>       0.56790407       0.28691654       0.57433588 </v>
   <v>       0.62079202       0.55880294       0.55359442 </v>
   <v>       0.46262317       0.06587265       0.55257966 </v>
   <v>       0.95456704       0.40072860       0.55238442 </v>
   <v>       0.40098765       0.45457702       0.58677069 </v>
   <v>       0.56676692       0.95113682       0.58743044 </v>
   <v>       0.12136305       0.56616584       0.56861997 </v>
   <v>       0.06237291       0.45653496       0.54846849 </v>
   <v>       0.11214791       0.39857173       0.51246204 </v>
   <v>       0.10251650       0.30725997       0.61521733 </v>
   <v>       0.24094089       0.62503535       0.57052421 </v>
   <v>       0.40210633       0.78054458       0.57076087 </v>
   <v>       0.39626098       0.61966588       0.57119166 </v>
   <v>       0.62563596       0.23655614       0.57372904 </v>
   <v>       0.78462473       0.39407925       0.57329885 </v>
   <v>       0.62721410       0.39529448       0.57368914 </v>
   <v>       0.45507539       0.55915775       0.56933528 </v>
   <v>       0.56635737       0.45425480       0.57111036 </v>
   <v>       0.56502687       0.61059187       0.54973335 </v>
   <v>       0.62332790       0.71887808       0.51418800 </v>
   <v>       0.71354239       0.80063436       0.61724733 </v>
   <v>       0.46261149       0.90007223       0.56889293 </v>
   <v>       0.56674561       0.11654303       0.57117084 </v>
   <v>       0.41135583       0.95817216       0.54842030 </v>
   <v>       0.30426882       0.90765940       0.51141299 </v>
   <v>       0.21899979       0.91630395       0.61282054 </v>
   <v>       0.90469729       0.45493187       0.57060086 </v>
   <v>       0.45506651       0.40120161       0.58541614 </v>
   <v>       0.61977333       0.05878308       0.58636282 </v>
   <v>       0.96339757       0.56590799       0.58565095 </v>
   <v>       0.02058832       0.28868766       0.62890837 </v>
   <v>       0.16409848       0.38108970       0.64015127 </v>
   <v>       0.11399556       0.23965905       0.62890612 </v>
   <v>       0.13891667       0.90340456       0.62540720 </v>
   <v>       0.28133680       0.99851596       0.62699922 </v>
   <v>       0.78112420       0.87990085       0.63111623 </v>
   <v>       0.73170910       0.73721561       0.63129549 </v>
   <v>       0.63942011       0.78832186       0.64170541 </v>
   <v>       0.23139814       0.85529788       0.63820879 </v>
   <v>       0.41069043       0.31495563       0.59661158 </v>
   <v>       0.70569436       0.10121620       0.59856625 </v>
   <v>       0.92168366       0.61001174       0.59767402 </v>
   <v>       0.13690779       0.41987421       0.45394433 </v>
   <v>       0.11796320       0.31830180       0.54361797 </v>
   <v>       0.30268012       0.88292850       0.45304156 </v>
   <v>       0.21698656       0.90133130       0.54125212 </v>
   <v>       0.60246878       0.72255245       0.45561527 </v>
   <v>       0.70346888       0.80505917       0.54559008 </v>
  </varray>
 </structure>
 <calculation>
  <scstep>
   <time name="dav">   35.60   36.14</time>
   <time name="total">   35.68   36.23</time>
   <energy>
    <i name="alphaZ">     52.95763239 </i>
    <i name="ewald">  25172.36488007 </i>
    <i name="hartreedc"> -33063.79152686 </i>
    <i name="XCdc">    776.32615413 </i>
    <i name="pawpsdc">  19244.29864844 </i>
    <i name="pawaedc"> -19289.26915766 </i>
    <i name="eentropy">     -0.00000000 </i>
    <i name="bandstr">  -2735.30019028 </i>
    <i name="atom">   9449.95607977 </i>
    <i name="e_fr_energy">   -392.45747999 </i>
    <i name="e_wo_entrp">   -392.45747999 </i>
    <i name="e_0_energy">   -392.45747999 </i>
   </energy>
  </scstep>
  <scstep>
   <time name="dav">   37.77   38.02</time>
   <time name="total">   37.77   38.02</time>
   <energy>
    <i name="e_fr_energy">   -395.06731139 </i>
    <i name="e_wo_entrp">   -395.06731139 </i>
    <i name="e_0_energy">   -395.06731139 </i>
   </energy>
  </scstep>
  <scstep>
   <time name="dav">   41.41   41.68</time>
   <time name="total">   41.42   41.68</time>
   <energy>
    <i name="e_fr_energy">   -395.12333976 </i>
    <i name="e_wo_entrp">   -395.12333976 </i>
    <i name="e_0_energy">   -395.12333976 </i>
   </energy>
  </scstep>
  <scstep>
   <time name="dav">   40.27   40.52</time>
   <time name="total">   40.28   40.53</time>
   <energy>
    <i name="e_fr_energy">   -395.12528476 </i>
    <i name="e_wo_entrp">   -395.12528476 </i>
    <i name="e_0_energy">   -395.12528476 </i>
   </energy>
  </scstep>
  <scstep>
   <time name="dav">   41.73   42.00</time>
   <time name="total">   41.73   42.00</time>
   <energy>
    <i name="e_fr_energy">   -395.12534422 </i>
    <i name="e_wo_entrp">   -395.12534422 </i>
    <i name="e_0_energy">   -395.12534422 </i>
   </energy>
  </scstep>
  <scstep>
   <time name="dav">   34.89   35.11</time>
   <time name="total">   34.89   35.12</time>
   <energy>
    <i name="alphaZ">     52.95763239 </i>
    <i name="ewald">  25172.36488007 </i>
    <i name="hartreedc"> -33063.79152686 </i>
    <i name="XCdc">    776.32615413 </i>
    <i name="pawpsdc">  19244.29864844 </i>
    <i name="pawaedc"> -19289.26915766 </i>
    <i name="eentropy">     -0.00000000 </i>
    <i name="bandstr">  -2737.96805594 </i>
    <i name="atom">   9449.95607977 </i>
    <i name="e_fr_energy">   -395.12534566 </i>
    <i name="e_wo_entrp">   -395.12534566 </i>
    <i name="e_0_energy">   -395.12534566 </i>
   </energy>
  </scstep>
  <structure>
   <crystal>
    <varray name="basis" >
     <v>      14.30724587      -0.01705850       0.00000000 </v>
     <v>      -7.16828509      12.38916832       0.00000000 </v>
     <v>       0.00000000       0.00000000      20.00000000 </v>
    </varray>
    <i name="volume">   3542.65194249 </i>
    <varray name="rec_basis" >
     <v>       0.06994290       0.04046847       0.00000000 </v>
     <v>       0.00009630       0.08077139       0.00000000 </v>
     <v>       0.00000000       0.00000000       0.05000000 </v>
    </varray>
   </crystal>
   <varray name="positions" >
    <v>       0.07109314       0.61997879       0.58681654 </v>
    <v>       0.29402562       0.73328197       0.57059939 </v>
    <v>       0.28791674       0.56413990       0.57134160 </v>
    <v>       0.45740421       0.72776255       0.57177550 </v>
    <v>       0.73402965       0.28583184       0.57369093 </v>
    <v>       0.73554357       0.45318090       0.57371276 </v>
    <v>       0.56790407       0.28691654       0.57433588 </v>
    <v>       0.62079202       0.55880294       0.55359442 </v>
    <v>       0.46262317       0.06587265       0.55257966 </v>
    <v>       0.95456704       0.40072860       0.55238442 </v>
    <v>       0.40098765       0.45457702       0.58677069 </v>
    <v>       0.56676692       0.95113682       0.58743044 </v>
    <v>       0.12136305       0.56616584       0.56861997 </v>
    <v>       0.06237291       0.45653496       0.54846849 </v>
    <v>       0.11214791       0.39857173       0.51246204 </v>
    <v>       0.10251650       0.30725997       0.61521733 </v>
    <v>       0.24094089       0.62503535       0.57052421 </v>
    <v>       0.40210633       0.78054458       0.57076087 </v>
    <v>       0.39626098       0.61966588       0.57119166 </v>
    <v>       0.62563596       0.23655614       0.57372904 </v>
    <v>       0.78462473       0.39407925       0.57329885 </v>
    <v>       0.62721410       0.39529448       0.57368914 </v>
    <v>       0.45507539       0.55915775       0.56933528 </v>
    <v>       0.56635737       0.45425480       0.57111036 </v>
    <v>       0.56502687       0.61059187       0.54973335 </v>
    <v>       0.62332790       0.71887808       0.51418800 </v>
    <v>       0.71354239       0.80063436       0.61724733 </v>
    <v>       0.46261149       0.90007223       0.56889293 </v>
    <v>       0.56674561       0.11654303       0.57117084 </v>
    <v>       0.41135583       0.95817216       0.54842030 </v>
    <v>       0.30426882       0.90765940       0.51141299 </v>
    <v>       0.21899979       0.91630395       0.61282054 </v>
    <v>       0.90469729       0.45493187       0.57060086 </v>
    <v>       0.45506651       0.40120161       0.58541614 </v>
    <v>       0.61977333       0.05878308       0.58636282 </v>
    <v>       0.96339757       0.56590799       0.58565095 </v>
    <v>       0.02058832       0.28868766       0.62890837 </v>
    <v>       0.16409848       0.38108970       0.64015127 </v>
    <v>       0.11399556       0.23965905       0.62890612 </v>
    <v>       0.13891667       0.90340456       0.62540720 </v>
    <v>       0.28133680       0.99851596       0.62699922 </v>
    <v>       0.78112420       0.87990085       0.63111623 </v>
    <v>       0.73170910       0.73721561       0.63129549 </v>
    <v>       0.63942011       0.78832186       0.64170541 </v>
    <v>       0.23139814       0.85529788       0.63820879 </v>
    <v>       0.41069043       0.31495563       0.59661158 </v>
    <v>       0.70569436       0.10121620       0.59856625 </v>
    <v>       0.92168366       0.61001174       0.59767402 </v>
    <v>       0.13690779       0.41987421       0.45394433 </v>
    <v>       0.11796320       0.31830180       0.54361797 </v>
    <v>       0.30268012       0.88292850       0.45304156 </v>
    <v>       0.21698656       0.90133130       0.54125212 </v>
    <v>       0.60246878       0.72255245       0.45561527 </v>
    <v>       0.70346888       0.80505917       0.54559008 </v>
   </varray>
  </structure>
  <varray name="forces" >
   <v>      -0.00253595       0.00303105       0.00315412 </v>
   <v>      -0.00887027       0.00997304      -0.00118509 </v>
   <v>       0.00258512      -0.00715186      -0.00096437 </v>
   <v>      -0.00846927      -0.00593283       0.00176864 </v>
   <v>       0.00462175      -0.00621927       0.00098140 </v>
   <v>      -0.00575331       0.00200453      -0.00418914 </v>
   <v>       0.01202380       0.00480197       0.00185567 </v>
   <v>      -0.00405272       0.00302559       0.00301739 </v>
   <v>       0.00498231      -0.00074137      -0.00088263 </v>
   <v>       0.00388111       0.00312783      -0.00090974 </v>
   <v>       0.00131706      -0.00395686       0.00312315 </v>
   <v>      -0.00101811      -0.00264076       0.00114684 </v>
   <v>      -0.00720208      -0.00162966      -0.00219736 </v>
   <v>       0.00253467      -0.00176083      -0.00503675 </v>
   <v>      -0.00190536      -0.00217009       0.01028538 </v>
   <v>      -0.00019016      -0.00264023      -0.00498672 </v>
   <v>       0.00118070      -0.00861854       0.00138562 </v>
   <v>       0.01694924       0.00082789      -0.00516458 </v>
   <v>       0.00550712       0.01150784       0.00698043 </v>
   <v>      -0.01546479       0.00007094       0.00422703 </v>
   <v>       0.00657085       0.00737461      -0.00421199 </v>
   <v>      -0.00077008      -0.01296976      -0.00253207 </v>
   <v>       0.00180572       0.00483691      -0.00022461 </v>
   <v>       0.00106748       0.00337057       0.00390346 </v>
   <v>      -0.00269553      -0.00189242       0.00278529 </v>
   <v>       0.00107164      -0.00122146       0.00020549 </v>
   <v>       0.00133532       0.00089965       0.00511461 </v>
   <v>      -0.00428774       0.00382860       0.00370021 </v>
   <v>       0.00058207      -0.00139556      -0.00424748 </v>
   <v>      -0.00149161      -0.00245311       0.00061178 </v>
   <v>       0.00441531      -0.00375796      -0.00572845 </v>
   <v>      -0.00030697       0.00020448      -0.00348412 </v>
   <v>       0.00147022       0.00125168       0.00304112 </v>
   <v>      -0.00109732      -0.00156993       0.00225755 </v>
   <v>      -0.00040877      -0.00052548      -0.00107005 </v>
   <v>      -0.00307275       0.00328797       0.00130335 </v>
   <v>      -0.00238382      -0.00136970      -0.00045390 </v>
   <v>       0.00033373       0.00022258      -0.00083576 </v>
   <v>       0.00211596      -0.00334291      -0.00319099 </v>
   <v>      -0.00197539       0.00277815      -0.00297835 </v>
   <v>      -0.00058863      -0.00157205      -0.00288368 </v>
   <v>       0.00010742      -0.00122670      -0.00194720 </v>
   <v>      -0.00015765       0.00276274      -0.00131857 </v>
   <v>       0.00308052       0.00099147       0.00073280 </v>
   <v>      -0.00119223       0.00204352       0.00215137 </v>
   <v>       0.00168149       0.00521705       0.00655005 </v>
   <v>      -0.00189224       0.00079492      -0.00114331 </v>
   <v>       0.00367806      -0.00251736      -0.00065867 </v>
   <v>       0.00078024       0.00560826      -0.00794243 </v>
   <v>      -0.00352757       0.00275286      -0.00323097 </v>
   <v>      -0.00293324      -0.00131884       0.00773930 </v>
   <v>       0.00292396      -0.00273987      -0.00259099 </v>
   <v>      -0.00328505       0.00072235       0.00151792 </v>
   <v>      -0.00107427      -0.00398366      -0.00335002 </v>
  </varray>
  <varray name="stress" >
   <v>      -0.01958449       0.01116018      -0.01689947 </v>
   <v>       0.01116018      -0.01772913       0.00453835 </v>
   <v>      -0.01689948       0.00453836      -0.44823691 </v>
  </varray>
  <energy>
   <i name="e_fr_energy">   -396.50064930 </i>
   <i name="e_wo_entrp">   -396.50064930 </i>
   <i name="e_0_energy">     -0.00000000 </i>
  </energy>
  <time name="totalsc">  258.30  260.51</time>
  <eigenvalues>
   <array>
    <dimension dim="1">band</dimension>
    <dimension dim="2">kpoint</dimension>
    <dimension dim="3">spin</dimension>
    <field>eigene</field>
    <field>occ</field>
    <set>
     <set comment="spin 1">
      <set comment="kpoint 1">
       <r>  -27.0145    1.0000 </r>
       <r>  -27.0111    1.0000 </r>
       <r>  -27.0077    1.0000 </r>
       <r>  -25.9479    1.0000 </r>
       <r>  -25.8407    1.0000 </r>
       <r>  -24.9792    1.0000 </r>
       <r>  -24.9757    1.0000 </r>
       <r>  -24.9482    1.0000 </r>
       <r>  -24.7659    1.0000 </r>
       <r>  -24.7619    1.0000 </r>
       <r>  -24.5994    1.0000 </r>
       <r>  -23.2026    1.0000 </r>
       <r>  -23.2006    1.0000 </r>
       <r>  -22.8157    1.0000 </r>
       <r>  -22.6879    1.0000 </r>
       <r>  -22.6873    1.0000 </r>
       <r>  -22.4920    1.0000 </r>
       <r>  -22.4905    1.0000 </r>
       <r>  -19.9567    1.0000 </r>
       <r>  -19.9519    1.0000 </r>
       <r>  -19.7768    1.0000 </r>
       <r>  -18.4549    1.0000 </r>
       <r>  -18.4484    1.0000 </r>
       <r>  -17.4472    1.0000 </r>
       <r>  -17.4377    1.0000 </r>
       <r>  -17.4317    1.0000 </r>
       <r>  -17.1998    1.0000 </r>
       <r>  -16.9244    1.0000 </r>
       <r>  -16.8348    1.0000 </r>
       <r>  -16.8322    1.0000 </r>
       <r>  -16.5202    1.0000 </r>
       <r>  -16.5175    1.0000 </r>
       <r>  -15.1624    1.0000 </r>
       <r>  -15.1587    1.0000 </r>
       <r>  -14.5749    1.0000 </r>
       <r>  -14.4828    1.0000 </r>
       <r>  -13.7847    1.0000 </r>
       <r>  -13.7806    1.0000 </r>
       <r>  -13.6514    1.0000 </r>
       <r>  -13.4234    1.0000 </r>
       <r>  -13.1281    1.0000 </r>
       <r>  -13.0727    1.0000 </r>
       <r>  -13.0697    1.0000 </r>
       <r>  -12.7193    1.0000 </r>
       <r>  -12.7150    1.0000 </r>
       <r>  -12.4868    1.0000 </r>
       <r>  -12.0748    1.0000 </r>
       <r>  -11.9961    1.0000 </r>
       <r>  -11.9945    1.0000 </r>
       <r>  -11.6717    1.0000 </r>
       <r>  -11.5835    1.0000 </r>
       <r>  -11.1827    1.0000 </r>
       <r>  -11.1788    1.0000 </r>
       <r>  -11.0689    1.0000 </r>
       <r>  -11.0167    1.0000 </r>
       <r>  -11.0112    1.0000 </r>
       <r>  -10.8933    1.0000 </r>
       <r>  -10.6872    1.0000 </r>
       <r>  -10.6825    1.0000 </r>
       <r>  -10.5196    1.0000 </r>
       <r>  -10.5074    1.0000 </r>
       <r>  -10.5043    1.0000 </r>
       <r>  -10.1184    1.0000 </r>
       <r>   -9.9083    1.0000 </r>
       <r>   -9.9066    1.0000 </r>
       <r>   -9.4812    1.0000 </r>
       <r>   -9.4183    1.0000 </r>
       <r>   -9.4157    1.0000 </r>
       <r>   -9.3316    1.0000 </r>
       <r>   -9.3287    1.0000 </r>
       <r>   -9.2975    1.0000 </r>
       <r>   -9.0455    1.0000 </r>
       <r>   -9.0413    1.0000 </r>
       <r>   -9.0248    1.0000 </r>
       <r>   -8.7826    1.0000 </r>
       <r>   -8.2581    1.0000 </r>
       <r>   -8.2537    1.0000 </r>
       <r>   -8.2508    1.0000 </r>
       <r>   -8.1214    1.0000 </r>
       <r>   -8.1168    1.0000 </r>
       <r>   -7.9116    1.0000 </r>
       <r>   -7.8628    1.0000 </r>
       <r>   -7.8591    1.0000 </r>
       <r>   -7.2610    1.0000 </r>
       <r>   -7.2599    1.0000 </r>
       <r>   -7.1435    1.0000 </r>
       <r>   -6.9140    1.0000 </r>
       <r>   -6.7491    1.0000 </r>
       <r>   -6.7431    1.0000 </r>
       <r>   -6.5529    1.0000 </r>
       <r>   -6.5490    1.0000 </r>
       <r>   -6.4918    1.0000 </r>
       <r>   -6.4096    1.0000 </r>
       <r>   -6.4037    1.0000 </r>
       <r>   -6.2396    1.0000 </r>
       <r>   -6.2314    1.0000 </r>
       <r>   -6.1614    1.0000 </r>
       <r>   -5.9652    1.0000 </r>
       <r>   -5.9616    1.0000 </r>
       <r>   -5.4523    1.0000 </r>
       <r>   -5.4065    1.0000 </r>
       <r>   -5.4038    1.0000 </r>
       <r>   -3.7390    0.0000 </r>
       <r>   -3.7367    0.0000 </r>
       <r>   -2.6203    0.0000 </r>
       <r>   -2.3345    0.0000 </r>
       <r>   -2.3343    0.0000 </r>
       <r>   -2.2141    0.0000 </r>
       <r>   -2.2083    0.0000 </r>
       <r>   -2.1284    0.0000 </r>
       <r>   -0.5858    0.0000 </r>
       <r>   -0.5842    0.0000 </r>
       <r>   -0.5778    0.0000 </r>
       <r>   -0.4024    0.0000 </r>
       <r>   -0.0761    0.0000 </r>
       <r>   -0.0639    0.0000 </r>
       <r>    0.3728    0.0000 </r>
       <r>    0.4740    0.0000 </r>
       <r>    0.4842    0.0000 </r>
       <r>    0.4889    0.0000 </r>
       <r>    0.5260    0.0000 </r>
       <r>    0.6390    0.0000 </r>
       <r>    0.6446    0.0000 </r>
       <r>    0.7451    0.0000 </r>
       <r>    1.1084    0.0000 </r>
       <r>    1.3621    0.0000 </r>
       <r>    1.3688    0.0000 </r>
       <r>    1.3794    0.0000 </r>
       <r>    1.6362    0.0000 </r>
       <r>    1.6400    0.0000 </r>
       <r>    1.7434    0.0000 </r>
       <r>    1.8669    0.0000 </r>
       <r>    1.9711    0.0000 </r>
       <r>    1.9951    0.0000 </r>
       <r>    2.0018    0.0000 </r>
       <r>    2.0873    0.0000 </r>
       <r>    2.0903    0.0000 </r>
       <r>    2.1056    0.0000 </r>
       <r>    2.1170    0.0000 </r>
       <r>    2.1560    0.0000 </r>
       <r>    2.1834    0.0000 </r>
       <r>    2.1920    0.0000 </r>
       <r>    2.2699    0.0000 </r>
       <r>    2.2728    0.0000 </r>
      </set>
      <set comment="kpoint 2">
       <r>  -27.0145    1.0000 </r>
       <r>  -27.0111    1.0000 </r>
       <r>  -27.0077    1.0000 </r>
       <r>  -25.9478    1.0000 </r>
       <r>  -25.8408    1.0000 </r>
       <r>  -24.9792    1.0000 </r>
       <r>  -24.9757    1.0000 </r>
       <r>  -24.9483    1.0000 </r>
       <r>  -24.7657    1.0000 </r>
       <r>  -24.7619    1.0000 </r>
       <r>  -24.5997    1.0000 </r>
       <r>  -23.2023    1.0000 </r>
       <r>  -23.2005    1.0000 </r>
       <r>  -22.8170    1.0000 </r>
       <r>  -22.6876    1.0000 </r>
       <r>  -22.6866    1.0000 </r>
       <r>  -22.4921    1.0000 </r>
       <r>  -22.4904    1.0000 </r>
       <r>  -19.9566    1.0000 </r>
       <r>  -19.9519    1.0000 </r>
       <r>  -19.7772    1.0000 </r>
       <r>  -18.4537    1.0000 </r>
       <r>  -18.4479    1.0000 </r>
       <r>  -17.4475    1.0000 </r>
       <r>  -17.4378    1.0000 </r>
       <r>  -17.4317    1.0000 </r>
       <r>  -17.2050    1.0000 </r>
       <r>  -16.9255    1.0000 </r>
       <r>  -16.8328    1.0000 </r>
       <r>  -16.8327    1.0000 </r>
       <r>  -16.5166    1.0000 </r>
       <r>  -16.5156    1.0000 </r>
       <r>  -15.1645    1.0000 </r>
       <r>  -15.1590    1.0000 </r>
       <r>  -14.5737    1.0000 </r>
       <r>  -14.4824    1.0000 </r>
       <r>  -13.7872    1.0000 </r>
       <r>  -13.7819    1.0000 </r>
       <r>  -13.6483    1.0000 </r>
       <r>  -13.4267    1.0000 </r>
       <r>  -13.1288    1.0000 </r>
       <r>  -13.0699    1.0000 </r>
       <r>  -13.0690    1.0000 </r>
       <r>  -12.7190    1.0000 </r>
       <r>  -12.7146    1.0000 </r>
       <r>  -12.4867    1.0000 </r>
       <r>  -12.0760    1.0000 </r>
       <r>  -11.9948    1.0000 </r>
       <r>  -11.9942    1.0000 </r>
       <r>  -11.6717    1.0000 </r>
       <r>  -11.5839    1.0000 </r>
       <r>  -11.1820    1.0000 </r>
       <r>  -11.1787    1.0000 </r>
       <r>  -11.0692    1.0000 </r>
       <r>  -11.0165    1.0000 </r>
       <r>  -11.0113    1.0000 </r>
       <r>  -10.8935    1.0000 </r>
       <r>  -10.6888    1.0000 </r>
       <r>  -10.6848    1.0000 </r>
       <r>  -10.5263    1.0000 </r>
       <r>  -10.5070    1.0000 </r>
       <r>  -10.4948    1.0000 </r>
       <r>  -10.1195    1.0000 </r>
       <r>   -9.9085    1.0000 </r>
       <r>   -9.9065    1.0000 </r>
       <r>   -9.4810    1.0000 </r>
       <r>   -9.4179    1.0000 </r>
       <r>   -9.4152    1.0000 </r>
       <r>   -9.3317    1.0000 </r>
       <r>   -9.3287    1.0000 </r>
       <r>   -9.2973    1.0000 </r>
       <r>   -9.0453    1.0000 </r>
       <r>   -9.0410    1.0000 </r>
       <r>   -9.0248    1.0000 </r>
       <r>   -8.7826    1.0000 </r>
       <r>   -8.2715    1.0000 </r>
       <r>   -8.2518    1.0000 </r>
       <r>   -8.2407    1.0000 </r>
       <r>   -8.1212    1.0000 </r>
       <r>   -8.1166    1.0000 </r>
       <r>   -7.9115    1.0000 </r>
       <r>   -7.8629    1.0000 </r>
       <r>   -7.8591    1.0000 </r>
       <r>   -7.2610    1.0000 </r>
       <r>   -7.2600    1.0000 </r>
       <r>   -7.1436    1.0000 </r>
       <r>   -6.9137    1.0000 </r>
       <r>   -6.7492    1.0000 </r>
       <r>   -6.7431    1.0000 </r>
       <r>   -6.5527    1.0000 </r>
       <r>   -6.5488    1.0000 </r>
       <r>   -6.4919    1.0000 </r>
       <r>   -6.4095    1.0000 </r>
       <r>   -6.4036    1.0000 </r>
       <r>   -6.2401    1.0000 </r>
       <r>   -6.2321    1.0000 </r>
       <r>   -6.1606    1.0000 </r>
       <r>   -5.9653    1.0000 </r>
       <r>   -5.9615    1.0000 </r>
       <r>   -5.4522    1.0000 </r>
       <r>   -5.4065    1.0000 </r>
       <r>   -5.4038    1.0000 </r>
       <r>   -3.7383    0.0000 </r>
       <r>   -3.7362    0.0000 </r>
       <r>   -2.6262    0.0000 </r>
       <r>   -2.3362    0.0000 </r>
       <r>   -2.3338    0.0000 </r>
       <r>   -2.2154    0.0000 </r>
       <r>   -2.2083    0.0000 </r>
       <r>   -2.1196    0.0000 </r>
       <r>   -0.5905    0.0000 </r>
       <r>   -0.5819    0.0000 </r>
       <r>   -0.5760    0.0000 </r>
       <r>   -0.4017    0.0000 </r>
       <r>   -0.0803    0.0000 </r>
       <r>   -0.0640    0.0000 </r>
       <r>    0.3676    0.0000 </r>
       <r>    0.4636    0.0000 </r>
       <r>    0.4819    0.0000 </r>
       <r>    0.4963    0.0000 </r>
       <r>    0.5302    0.0000 </r>
       <r>    0.6446    0.0000 </r>
       <r>    0.6501    0.0000 </r>
       <r>    0.7480    0.0000 </r>
       <r>    1.1091    0.0000 </r>
       <r>    1.3572    0.0000 </r>
       <r>    1.3663    0.0000 </r>
       <r>    1.3826    0.0000 </r>
       <r>    1.6366    0.0000 </r>
       <r>    1.6393    0.0000 </r>
       <r>    1.7475    0.0000 </r>
       <r>    1.8661    0.0000 </r>
       <r>    1.9581    0.0000 </r>
       <r>    1.9928    0.0000 </r>
       <r>    2.0032    0.0000 </r>
       <r>    2.0663    0.0000 </r>
       <r>    2.0918    0.0000 </r>
       <r>    2.1125    0.0000 </r>
       <r>    2.1353    0.0000 </r>
       <r>    2.1602    0.0000 </r>
       <r>    2.1825    0.0000 </r>
       <r>    2.1967    0.0000 </r>
       <r>    2.2558    0.0000 </r>
       <r>    2.2806    0.0000 </r>
      </set>
      <set comment="kpoint 3">
       <r>  -27.0145    1.0000 </r>
       <r>  -27.0111    1.0000 </r>
       <r>  -27.0077    1.0000 </r>
       <r>  -25.9477    1.0000 </r>
       <r>  -25.8409    1.0000 </r>
       <r>  -24.9791    1.0000 </r>
       <r>  -24.9756    1.0000 </r>
       <r>  -24.9483    1.0000 </r>
       <r>  -24.7652    1.0000 </r>
       <r>  -24.7618    1.0000 </r>
       <r>  -24.6006    1.0000 </r>
       <r>  -23.2016    1.0000 </r>
       <r>  -23.1998    1.0000 </r>
       <r>  -22.8209    1.0000 </r>
       <r>  -22.6878    1.0000 </r>
       <r>  -22.6837    1.0000 </r>
       <r>  -22.4923    1.0000 </r>
       <r>  -22.4902    1.0000 </r>
       <r>  -19.9561    1.0000 </r>
       <r>  -19.9522    1.0000 </r>
       <r>  -19.7785    1.0000 </r>
       <r>  -18.4507    1.0000 </r>
       <r>  -18.4458    1.0000 </r>
       <r>  -17.4485    1.0000 </r>
       <r>  -17.4381    1.0000 </r>
       <r>  -17.4316    1.0000 </r>
       <r>  -17.2197    1.0000 </r>
       <r>  -16.9287    1.0000 </r>
       <r>  -16.8342    1.0000 </r>
       <r>  -16.8275    1.0000 </r>
       <r>  -16.5107    1.0000 </r>
       <r>  -16.5053    1.0000 </r>
       <r>  -15.1708    1.0000 </r>
       <r>  -15.1602    1.0000 </r>
       <r>  -14.5702    1.0000 </r>
       <r>  -14.4812    1.0000 </r>
       <r>  -13.7963    1.0000 </r>
       <r>  -13.7831    1.0000 </r>
       <r>  -13.6399    1.0000 </r>
       <r>  -13.4361    1.0000 </r>
       <r>  -13.1303    1.0000 </r>
       <r>  -13.0699    1.0000 </r>
       <r>  -13.0592    1.0000 </r>
       <r>  -12.7179    1.0000 </r>
       <r>  -12.7131    1.0000 </r>
       <r>  -12.4865    1.0000 </r>
       <r>  -12.0794    1.0000 </r>
       <r>  -11.9943    1.0000 </r>
       <r>  -11.9903    1.0000 </r>
       <r>  -11.6716    1.0000 </r>
       <r>  -11.5852    1.0000 </r>
       <r>  -11.1805    1.0000 </r>
       <r>  -11.1780    1.0000 </r>
       <r>  -11.0700    1.0000 </r>
       <r>  -11.0161    1.0000 </r>
       <r>  -11.0116    1.0000 </r>
       <r>  -10.8942    1.0000 </r>
       <r>  -10.6983    1.0000 </r>
       <r>  -10.6862    1.0000 </r>
       <r>  -10.5343    1.0000 </r>
       <r>  -10.5069    1.0000 </r>
       <r>  -10.4778    1.0000 </r>
       <r>  -10.1226    1.0000 </r>
       <r>   -9.9092    1.0000 </r>
       <r>   -9.9062    1.0000 </r>
       <r>   -9.4804    1.0000 </r>
       <r>   -9.4174    1.0000 </r>
       <r>   -9.4131    1.0000 </r>
       <r>   -9.3320    1.0000 </r>
       <r>   -9.3287    1.0000 </r>
       <r>   -9.2969    1.0000 </r>
       <r>   -9.0446    1.0000 </r>
       <r>   -9.0399    1.0000 </r>
       <r>   -9.0246    1.0000 </r>
       <r>   -8.7826    1.0000 </r>
       <r>   -8.2883    1.0000 </r>
       <r>   -8.2524    1.0000 </r>
       <r>   -8.2276    1.0000 </r>
       <r>   -8.1208    1.0000 </r>
       <r>   -8.1160    1.0000 </r>
       <r>   -7.9112    1.0000 </r>
       <r>   -7.8630    1.0000 </r>
       <r>   -7.8590    1.0000 </r>
       <r>   -7.2609    1.0000 </r>
       <r>   -7.2604    1.0000 </r>
       <r>   -7.1441    1.0000 </r>
       <r>   -6.9127    1.0000 </r>
       <r>   -6.7496    1.0000 </r>
       <r>   -6.7431    1.0000 </r>
       <r>   -6.5522    1.0000 </r>
       <r>   -6.5482    1.0000 </r>
       <r>   -6.4920    1.0000 </r>
       <r>   -6.4093    1.0000 </r>
       <r>   -6.4032    1.0000 </r>
       <r>   -6.2418    1.0000 </r>
       <r>   -6.2337    1.0000 </r>
       <r>   -6.1582    1.0000 </r>
       <r>   -5.9654    1.0000 </r>
       <r>   -5.9615    1.0000 </r>
       <r>   -5.4520    1.0000 </r>
       <r>   -5.4067    1.0000 </r>
       <r>   -5.4039    1.0000 </r>
       <r>   -3.7373    0.0000 </r>
       <r>   -3.7339    0.0000 </r>
       <r>   -2.6431    0.0000 </r>
       <r>   -2.3411    0.0000 </r>
       <r>   -2.3323    0.0000 </r>
       <r>   -2.2200    0.0000 </r>
       <r>   -2.2052    0.0000 </r>
       <r>   -2.0964    0.0000 </r>
       <r>   -0.5972    0.0000 </r>
       <r>   -0.5814    0.0000 </r>
       <r>   -0.5719    0.0000 </r>
       <r>   -0.3998    0.0000 </r>
       <r>   -0.0926    0.0000 </r>
       <r>   -0.0643    0.0000 </r>
       <r>    0.3530    0.0000 </r>
       <r>    0.4438    0.0000 </r>
       <r>    0.4782    0.0000 </r>
       <r>    0.5070    0.0000 </r>
       <r>    0.5415    0.0000 </r>
       <r>    0.6557    0.0000 </r>
       <r>    0.6686    0.0000 </r>
       <r>    0.7568    0.0000 </r>
       <r>    1.1112    0.0000 </r>
       <r>    1.3444    0.0000 </r>
       <r>    1.3629    0.0000 </r>
       <r>    1.3864    0.0000 </r>
       <r>    1.6339    0.0000 </r>
       <r>    1.6421    0.0000 </r>
       <r>    1.7586    0.0000 </r>
       <r>    1.8633    0.0000 </r>
       <r>    1.9327    0.0000 </r>
       <r>    1.9808    0.0000 </r>
       <r>    1.9974    0.0000 </r>
       <r>    2.0484    0.0000 </r>
       <r>    2.0937    0.0000 </r>
       <r>    2.1116    0.0000 </r>
       <r>    2.1460    0.0000 </r>
       <r>    2.1705    0.0000 </r>
       <r>    2.1889    0.0000 </r>
       <r>    2.2127    0.0000 </r>
       <r>    2.2460    0.0000 </r>
       <r>    2.3029    0.0000 </r>
      </set>
      <set comment="kpoint 4">
       <r>  -27.0145    1.0000 </r>
       <r>  -27.0111    1.0000 </r>
       <r>  -27.0077    1.0000 </r>
       <r>  -25.9476    1.0000 </r>
       <r>  -25.8411    1.0000 </r>
       <r>  -24.9789    1.0000 </r>
       <r>  -24.9754    1.0000 </r>
       <r>  -24.9484    1.0000 </r>
       <r>  -24.7645    1.0000 </r>
       <r>  -24.7615    1.0000 </r>
       <r>  -24.6020    1.0000 </r>
       <r>  -23.2012    1.0000 </r>
       <r>  -23.1979    1.0000 </r>
       <r>  -22.8270    1.0000 </r>
       <r>  -22.6883    1.0000 </r>
       <r>  -22.6791    1.0000 </r>
       <r>  -22.4926    1.0000 </r>
       <r>  -22.4897    1.0000 </r>
       <r>  -19.9554    1.0000 </r>
       <r>  -19.9525    1.0000 </r>
       <r>  -19.7805    1.0000 </r>
       <r>  -18.4479    1.0000 </r>
       <r>  -18.4402    1.0000 </r>
       <r>  -17.4502    1.0000 </r>
       <r>  -17.4387    1.0000 </r>
       <r>  -17.4315    1.0000 </r>
       <r>  -17.2422    1.0000 </r>
       <r>  -16.9338    1.0000 </r>
       <r>  -16.8363    1.0000 </r>
       <r>  -16.8204    1.0000 </r>
       <r>  -16.5027    1.0000 </r>
       <r>  -16.4870    1.0000 </r>
       <r>  -15.1811    1.0000 </r>
       <r>  -15.1620    1.0000 </r>
       <r>  -14.5646    1.0000 </r>
       <r>  -14.4790    1.0000 </r>
       <r>  -13.8101    1.0000 </r>
       <r>  -13.7842    1.0000 </r>
       <r>  -13.6284    1.0000 </r>
       <r>  -13.4506    1.0000 </r>
       <r>  -13.1320    1.0000 </r>
       <r>  -13.0701    1.0000 </r>
       <r>  -13.0447    1.0000 </r>
       <r>  -12.7166    1.0000 </r>
       <r>  -12.7103    1.0000 </r>
       <r>  -12.4862    1.0000 </r>
       <r>  -12.0844    1.0000 </r>
       <r>  -11.9939    1.0000 </r>
       <r>  -11.9838    1.0000 </r>
       <r>  -11.6715    1.0000 </r>
       <r>  -11.5872    1.0000 </r>
       <r>  -11.1796    1.0000 </r>
       <r>  -11.1751    1.0000 </r>
       <r>  -11.0714    1.0000 </r>
       <r>  -11.0155    1.0000 </r>
       <r>  -11.0119    1.0000 </r>
       <r>  -10.8954    1.0000 </r>
       <r>  -10.7145    1.0000 </r>
       <r>  -10.6866    1.0000 </r>
       <r>  -10.5400    1.0000 </r>
       <r>  -10.5068    1.0000 </r>
       <r>  -10.4589    1.0000 </r>
       <r>  -10.1277    1.0000 </r>
       <r>   -9.9104    1.0000 </r>
       <r>   -9.9057    1.0000 </r>
       <r>   -9.4795    1.0000 </r>
       <r>   -9.4171    1.0000 </r>
       <r>   -9.4092    1.0000 </r>
       <r>   -9.3324    1.0000 </r>
       <r>   -9.3286    1.0000 </r>
       <r>   -9.2963    1.0000 </r>
       <r>   -9.0439    1.0000 </r>
       <r>   -9.0377    1.0000 </r>
       <r>   -9.0241    1.0000 </r>
       <r>   -8.7826    1.0000 </r>
       <r>   -8.3062    1.0000 </r>
       <r>   -8.2535    1.0000 </r>
       <r>   -8.2155    1.0000 </r>
       <r>   -8.1201    1.0000 </r>
       <r>   -8.1149    1.0000 </r>
       <r>   -7.9106    1.0000 </r>
       <r>   -7.8632    1.0000 </r>
       <r>   -7.8589    1.0000 </r>
       <r>   -7.2611    1.0000 </r>
       <r>   -7.2606    1.0000 </r>
       <r>   -7.1449    1.0000 </r>
       <r>   -6.9111    1.0000 </r>
       <r>   -6.7503    1.0000 </r>
       <r>   -6.7431    1.0000 </r>
       <r>   -6.5512    1.0000 </r>
       <r>   -6.5473    1.0000 </r>
       <r>   -6.4921    1.0000 </r>
       <r>   -6.4090    1.0000 </r>
       <r>   -6.4027    1.0000 </r>
       <r>   -6.2448    1.0000 </r>
       <r>   -6.2360    1.0000 </r>
       <r>   -6.1547    1.0000 </r>
       <r>   -5.9657    1.0000 </r>
       <r>   -5.9614    1.0000 </r>
       <r>   -5.4517    1.0000 </r>
       <r>   -5.4070    1.0000 </r>
       <r>   -5.4040    1.0000 </r>
       <r>   -3.7366    0.0000 </r>
       <r>   -3.7290    0.0000 </r>
       <r>   -2.6689    0.0000 </r>
       <r>   -2.3485    0.0000 </r>
       <r>   -2.3303    0.0000 </r>
       <r>   -2.2250    0.0000 </r>
       <r>   -2.1993    0.0000 </r>
       <r>   -2.0636    0.0000 </r>
       <r>   -0.6051    0.0000 </r>
       <r>   -0.5815    0.0000 </r>
       <r>   -0.5675    0.0000 </r>
       <r>   -0.3966    0.0000 </r>
       <r>   -0.1117    0.0000 </r>
       <r>   -0.0648    0.0000 </r>
       <r>    0.3312    0.0000 </r>
       <r>    0.4219    0.0000 </r>
       <r>    0.4714    0.0000 </r>
       <r>    0.5196    0.0000 </r>
       <r>    0.5589    0.0000 </r>
       <r>    0.6705    0.0000 </r>
       <r>    0.6951    0.0000 </r>
       <r>    0.7722    0.0000 </r>
       <r>    1.1146    0.0000 </r>
       <r>    1.3276    0.0000 </r>
       <r>    1.3585    0.0000 </r>
       <r>    1.3879    0.0000 </r>
       <r>    1.6299    0.0000 </r>
       <r>    1.6479    0.0000 </r>
       <r>    1.7734    0.0000 </r>
       <r>    1.8577    0.0000 </r>
       <r>    1.9033    0.0000 </r>
       <r>    1.9635    0.0000 </r>
       <r>    1.9802    0.0000 </r>
       <r>    2.0359    0.0000 </r>
       <r>    2.0908    0.0000 </r>
       <r>    2.1126    0.0000 </r>
       <r>    2.1457    0.0000 </r>
       <r>    2.1721    0.0000 </r>
       <r>    2.2029    0.0000 </r>
       <r>    2.2265    0.0000 </r>
       <r>    2.2546    0.0000 </r>
       <r>    2.3202    0.0000 </r>
      </set>
      <set comment="kpoint 5">
       <r>  -27.0145    1.0000 </r>
       <r>  -27.0111    1.0000 </r>
       <r>  -27.0077    1.0000 </r>
       <r>  -25.9473    1.0000 </r>
       <r>  -25.8415    1.0000 </r>
       <r>  -24.9787    1.0000 </r>
       <r>  -24.9752    1.0000 </r>
       <r>  -24.9486    1.0000 </r>
       <r>  -24.7637    1.0000 </r>
       <r>  -24.7609    1.0000 </r>
       <r>  -24.6040    1.0000 </r>
       <r>  -23.2010    1.0000 </r>
       <r>  -23.1949    1.0000 </r>
       <r>  -22.8349    1.0000 </r>
       <r>  -22.6891    1.0000 </r>
       <r>  -22.6733    1.0000 </r>
       <r>  -22.4932    1.0000 </r>
       <r>  -22.4891    1.0000 </r>
       <r>  -19.9544    1.0000 </r>
       <r>  -19.9529    1.0000 </r>
       <r>  -19.7833    1.0000 </r>
       <r>  -18.4456    1.0000 </r>
       <r>  -18.4308    1.0000 </r>
       <r>  -17.4533    1.0000 </r>
       <r>  -17.4394    1.0000 </r>
       <r>  -17.4314    1.0000 </r>
       <r>  -17.2701    1.0000 </r>
       <r>  -16.9406    1.0000 </r>
       <r>  -16.8389    1.0000 </r>
       <r>  -16.8130    1.0000 </r>
       <r>  -16.4923    1.0000 </r>
       <r>  -16.4620    1.0000 </r>
       <r>  -15.1953    1.0000 </r>
       <r>  -15.1645    1.0000 </r>
       <r>  -14.5575    1.0000 </r>
       <r>  -14.4755    1.0000 </r>
       <r>  -13.8264    1.0000 </r>
       <r>  -13.7856    1.0000 </r>
       <r>  -13.6156    1.0000 </r>
       <r>  -13.4687    1.0000 </r>
       <r>  -13.1335    1.0000 </r>
       <r>  -13.0704    1.0000 </r>
       <r>  -13.0272    1.0000 </r>
       <r>  -12.7150    1.0000 </r>
       <r>  -12.7062    1.0000 </r>
       <r>  -12.4857    1.0000 </r>
       <r>  -12.0904    1.0000 </r>
       <r>  -11.9933    1.0000 </r>
       <r>  -11.9757    1.0000 </r>
       <r>  -11.6713    1.0000 </r>
       <r>  -11.5898    1.0000 </r>
       <r>  -11.1794    1.0000 </r>
       <r>  -11.1703    1.0000 </r>
       <r>  -11.0732    1.0000 </r>
       <r>  -11.0152    1.0000 </r>
       <r>  -11.0121    1.0000 </r>
       <r>  -10.8971    1.0000 </r>
       <r>  -10.7345    1.0000 </r>
       <r>  -10.6870    1.0000 </r>
       <r>  -10.5436    1.0000 </r>
       <r>  -10.5067    1.0000 </r>
       <r>  -10.4392    1.0000 </r>
       <r>  -10.1344    1.0000 </r>
       <r>   -9.9120    1.0000 </r>
       <r>   -9.9051    1.0000 </r>
       <r>   -9.4782    1.0000 </r>
       <r>   -9.4170    1.0000 </r>
       <r>   -9.4042    1.0000 </r>
       <r>   -9.3329    1.0000 </r>
       <r>   -9.3284    1.0000 </r>
       <r>   -9.2954    1.0000 </r>
       <r>   -9.0432    1.0000 </r>
       <r>   -9.0347    1.0000 </r>
       <r>   -9.0232    1.0000 </r>
       <r>   -8.7826    1.0000 </r>
       <r>   -8.3251    1.0000 </r>
       <r>   -8.2550    1.0000 </r>
       <r>   -8.2047    1.0000 </r>
       <r>   -8.1191    1.0000 </r>
       <r>   -8.1136    1.0000 </r>
       <r>   -7.9097    1.0000 </r>
       <r>   -7.8634    1.0000 </r>
       <r>   -7.8588    1.0000 </r>
       <r>   -7.2619    1.0000 </r>
       <r>   -7.2604    1.0000 </r>
       <r>   -7.1460    1.0000 </r>
       <r>   -6.9089    1.0000 </r>
       <r>   -6.7512    1.0000 </r>
       <r>   -6.7432    1.0000 </r>
       <r>   -6.5500    1.0000 </r>
       <r>   -6.5461    1.0000 </r>
       <r>   -6.4923    1.0000 </r>
       <r>   -6.4085    1.0000 </r>
       <r>   -6.4018    1.0000 </r>
       <r>   -6.2492    1.0000 </r>
       <r>   -6.2384    1.0000 </r>
       <r>   -6.1503    1.0000 </r>
       <r>   -5.9662    1.0000 </r>
       <r>   -5.9612    1.0000 </r>
       <r>   -5.4513    1.0000 </r>
       <r>   -5.4074    1.0000 </r>
       <r>   -5.4042    1.0000 </r>
       <r>   -3.7358    0.0000 </r>
       <r>   -3.7220    0.0000 </r>
       <r>   -2.7013    0.0000 </r>
       <r>   -2.3576    0.0000 </r>
       <r>   -2.3284    0.0000 </r>
       <r>   -2.2290    0.0000 </r>
       <r>   -2.1917    0.0000 </r>
       <r>   -2.0244    0.0000 </r>
       <r>   -0.6143    0.0000 </r>
       <r>   -0.5818    0.0000 </r>
       <r>   -0.5630    0.0000 </r>
       <r>   -0.3921    0.0000 </r>
       <r>   -0.1363    0.0000 </r>
       <r>   -0.0654    0.0000 </r>
       <r>    0.3041    0.0000 </r>
       <r>    0.4008    0.0000 </r>
       <r>    0.4618    0.0000 </r>
       <r>    0.5345    0.0000 </r>
       <r>    0.5808    0.0000 </r>
       <r>    0.6882    0.0000 </r>
       <r>    0.7245    0.0000 </r>
       <r>    0.7944    0.0000 </r>
       <r>    1.1194    0.0000 </r>
       <r>    1.3079    0.0000 </r>
       <r>    1.3531    0.0000 </r>
       <r>    1.3872    0.0000 </r>
       <r>    1.6265    0.0000 </r>
       <r>    1.6551    0.0000 </r>
       <r>    1.7872    0.0000 </r>
       <r>    1.8476    0.0000 </r>
       <r>    1.8747    0.0000 </r>
       <r>    1.9431    0.0000 </r>
       <r>    1.9627    0.0000 </r>
       <r>    2.0186    0.0000 </r>
       <r>    2.0883    0.0000 </r>
       <r>    2.1019    0.0000 </r>
       <r>    2.1491    0.0000 </r>
       <r>    2.1686    0.0000 </r>
       <r>    2.2098    0.0000 </r>
       <r>    2.2316    0.0000 </r>
       <r>    2.2674    0.0000 </r>
       <r>    2.3326    0.0000 </r>
      </set>
      <set comment="kpoint 6">
       <r>  -27.0145    1.0000 </r>
       <r>  -27.0111    1.0000 </r>
       <r>  -27.0077    1.0000 </r>
       <r>  -25.9471    1.0000 </r>
       <r>  -25.8419    1.0000 </r>
       <r>  -24.9785    1.0000 </r>
       <r>  -24.9748    1.0000 </r>
       <r>  -24.9488    1.0000 </r>
       <r>  -24.7632    1.0000 </r>
       <r>  -24.7597    1.0000 </r>
       <r>  -24.6065    1.0000 </r>
       <r>  -23.2008    1.0000 </r>
       <r>  -23.1910    1.0000 </r>
       <r>  -22.8441    1.0000 </r>
       <r>  -22.6899    1.0000 </r>
       <r>  -22.6667    1.0000 </r>
       <r>  -22.4939    1.0000 </r>
       <r>  -22.4883    1.0000 </r>
       <r>  -19.9539    1.0000 </r>
       <r>  -19.9528    1.0000 </r>
       <r>  -19.7869    1.0000 </r>
       <r>  -18.4431    1.0000 </r>
       <r>  -18.4185    1.0000 </r>
       <r>  -17.4585    1.0000 </r>
       <r>  -17.4402    1.0000 </r>
       <r>  -17.4312    1.0000 </r>
       <r>  -17.3007    1.0000 </r>
       <r>  -16.9489    1.0000 </r>
       <r>  -16.8415    1.0000 </r>
       <r>  -16.8062    1.0000 </r>
       <r>  -16.4801    1.0000 </r>
       <r>  -16.4311    1.0000 </r>
       <r>  -15.2130    1.0000 </r>
       <r>  -15.1676    1.0000 </r>
       <r>  -14.5496    1.0000 </r>
       <r>  -14.4704    1.0000 </r>
       <r>  -13.8440    1.0000 </r>
       <r>  -13.7875    1.0000 </r>
       <r>  -13.6032    1.0000 </r>
       <r>  -13.4885    1.0000 </r>
       <r>  -13.1347    1.0000 </r>
       <r>  -13.0707    1.0000 </r>
       <r>  -13.0080    1.0000 </r>
       <r>  -12.7131    1.0000 </r>
       <r>  -12.7008    1.0000 </r>
       <r>  -12.4852    1.0000 </r>
       <r>  -12.0971    1.0000 </r>
       <r>  -11.9927    1.0000 </r>
       <r>  -11.9663    1.0000 </r>
       <r>  -11.6711    1.0000 </r>
       <r>  -11.5931    1.0000 </r>
       <r>  -11.1793    1.0000 </r>
       <r>  -11.1641    1.0000 </r>
       <r>  -11.0754    1.0000 </r>
       <r>  -11.0157    1.0000 </r>
       <r>  -11.0115    1.0000 </r>
       <r>  -10.8994    1.0000 </r>
       <r>  -10.7569    1.0000 </r>
       <r>  -10.6874    1.0000 </r>
       <r>  -10.5458    1.0000 </r>
       <r>  -10.5064    1.0000 </r>
       <r>  -10.4196    1.0000 </r>
       <r>  -10.1424    1.0000 </r>
       <r>   -9.9141    1.0000 </r>
       <r>   -9.9044    1.0000 </r>
       <r>   -9.4765    1.0000 </r>
       <r>   -9.4169    1.0000 </r>
       <r>   -9.3984    1.0000 </r>
       <r>   -9.3332    1.0000 </r>
       <r>   -9.3280    1.0000 </r>
       <r>   -9.2944    1.0000 </r>
       <r>   -9.0425    1.0000 </r>
       <r>   -9.0313    1.0000 </r>
       <r>   -9.0212    1.0000 </r>
       <r>   -8.7825    1.0000 </r>
       <r>   -8.3450    1.0000 </r>
       <r>   -8.2568    1.0000 </r>
       <r>   -8.1952    1.0000 </r>
       <r>   -8.1178    1.0000 </r>
       <r>   -8.1119    1.0000 </r>
       <r>   -7.9087    1.0000 </r>
       <r>   -7.8638    1.0000 </r>
       <r>   -7.8586    1.0000 </r>
       <r>   -7.2629    1.0000 </r>
       <r>   -7.2600    1.0000 </r>
       <r>   -7.1474    1.0000 </r>
       <r>   -6.9060    1.0000 </r>
       <r>   -6.7525    1.0000 </r>
       <r>   -6.7432    1.0000 </r>
       <r>   -6.5485    1.0000 </r>
       <r>   -6.5445    1.0000 </r>
       <r>   -6.4926    1.0000 </r>
       <r>   -6.4080    1.0000 </r>
       <r>   -6.4008    1.0000 </r>
       <r>   -6.2545    1.0000 </r>
       <r>   -6.2410    1.0000 </r>
       <r>   -6.1454    1.0000 </r>
       <r>   -5.9669    1.0000 </r>
       <r>   -5.9609    1.0000 </r>
       <r>   -5.4507    1.0000 </r>
       <r>   -5.4080    1.0000 </r>
       <r>   -5.4044    1.0000 </r>
       <r>   -3.7349    0.0000 </r>
       <r>   -3.7129    0.0000 </r>
       <r>   -2.7382    0.0000 </r>
       <r>   -2.3676    0.0000 </r>
       <r>   -2.3267    0.0000 </r>
       <r>   -2.2320    0.0000 </r>
       <r>   -2.1830    0.0000 </r>
       <r>   -1.9806    0.0000 </r>
       <r>   -0.6252    0.0000 </r>
       <r>   -0.5822    0.0000 </r>
       <r>   -0.5587    0.0000 </r>
       <r>   -0.3863    0.0000 </r>
       <r>   -0.1647    0.0000 </r>
       <r>   -0.0662    0.0000 </r>
       <r>    0.2736    0.0000 </r>
       <r>    0.3815    0.0000 </r>
       <r>    0.4507    0.0000 </r>
       <r>    0.5508    0.0000 </r>
       <r>    0.6057    0.0000 </r>
       <r>    0.7079    0.0000 </r>
       <r>    0.7548    0.0000 </r>
       <r>    0.8231    0.0000 </r>
       <r>    1.1256    0.0000 </r>
       <r>    1.2861    0.0000 </r>
       <r>    1.3469    0.0000 </r>
       <r>    1.3845    0.0000 </r>
       <r>    1.6241    0.0000 </r>
       <r>    1.6627    0.0000 </r>
       <r>    1.7899    0.0000 </r>
       <r>    1.8318    0.0000 </r>
       <r>    1.8558    0.0000 </r>
       <r>    1.9236    0.0000 </r>
       <r>    1.9476    0.0000 </r>
       <r>    1.9977    0.0000 </r>
       <r>    2.0763    0.0000 </r>
       <r>    2.0944    0.0000 </r>
       <r>    2.1427    0.0000 </r>
       <r>    2.1727    0.0000 </r>
       <r>    2.2154    0.0000 </r>
       <r>    2.2467    0.0000 </r>
       <r>    2.2773    0.0000 </r>
       <r>    2.3454    0.0000 </r>
      </set>
      <set comment="kpoint 7">
       <r>  -27.0145    1.0000 </r>
       <r>  -27.0111    1.0000 </r>
       <r>  -27.0077    1.0000 </r>
       <r>  -25.9468    1.0000 </r>
       <r>  -25.8424    1.0000 </r>
       <r>  -24.9784    1.0000 </r>
       <r>  -24.9743    1.0000 </r>
       <r>  -24.9490    1.0000 </r>
       <r>  -24.7629    1.0000 </r>
       <r>  -24.7578    1.0000 </r>
       <r>  -24.6095    1.0000 </r>
       <r>  -23.2006    1.0000 </r>
       <r>  -23.1862    1.0000 </r>
       <r>  -22.8543    1.0000 </r>
       <r>  -22.6910    1.0000 </r>
       <r>  -22.6596    1.0000 </r>
       <r>  -22.4949    1.0000 </r>
       <r>  -22.4874    1.0000 </r>
       <r>  -19.9544    1.0000 </r>
       <r>  -19.9513    1.0000 </r>
       <r>  -19.7910    1.0000 </r>
       <r>  -18.4403    1.0000 </r>
       <r>  -18.4036    1.0000 </r>
       <r>  -17.4672    1.0000 </r>
       <r>  -17.4411    1.0000 </r>
       <r>  -17.4310    1.0000 </r>
       <r>  -17.3312    1.0000 </r>
       <r>  -16.9584    1.0000 </r>
       <r>  -16.8439    1.0000 </r>
       <r>  -16.8004    1.0000 </r>
       <r>  -16.4666    1.0000 </r>
       <r>  -16.3953    1.0000 </r>
       <r>  -15.2340    1.0000 </r>
       <r>  -15.1712    1.0000 </r>
       <r>  -14.5415    1.0000 </r>
       <r>  -14.4634    1.0000 </r>
       <r>  -13.8619    1.0000 </r>
       <r>  -13.7900    1.0000 </r>
       <r>  -13.5933    1.0000 </r>
       <r>  -13.5078    1.0000 </r>
       <r>  -13.1357    1.0000 </r>
       <r>  -13.0711    1.0000 </r>
       <r>  -12.9882    1.0000 </r>
       <r>  -12.7109    1.0000 </r>
       <r>  -12.6942    1.0000 </r>
       <r>  -12.4846    1.0000 </r>
       <r>  -12.1041    1.0000 </r>
       <r>  -11.9919    1.0000 </r>
       <r>  -11.9560    1.0000 </r>
       <r>  -11.6708    1.0000 </r>
       <r>  -11.5968    1.0000 </r>
       <r>  -11.1793    1.0000 </r>
       <r>  -11.1568    1.0000 </r>
       <r>  -11.0781    1.0000 </r>
       <r>  -11.0171    1.0000 </r>
       <r>  -11.0103    1.0000 </r>
       <r>  -10.9022    1.0000 </r>
       <r>  -10.7804    1.0000 </r>
       <r>  -10.6880    1.0000 </r>
       <r>  -10.5471    1.0000 </r>
       <r>  -10.5061    1.0000 </r>
       <r>  -10.4009    1.0000 </r>
       <r>  -10.1511    1.0000 </r>
       <r>   -9.9166    1.0000 </r>
       <r>   -9.9036    1.0000 </r>
       <r>   -9.4745    1.0000 </r>
       <r>   -9.4168    1.0000 </r>
       <r>   -9.3927    1.0000 </r>
       <r>   -9.3334    1.0000 </r>
       <r>   -9.3271    1.0000 </r>
       <r>   -9.2933    1.0000 </r>
       <r>   -9.0417    1.0000 </r>
       <r>   -9.0288    1.0000 </r>
       <r>   -9.0168    1.0000 </r>
       <r>   -8.7825    1.0000 </r>
       <r>   -8.3658    1.0000 </r>
       <r>   -8.2588    1.0000 </r>
       <r>   -8.1869    1.0000 </r>
       <r>   -8.1162    1.0000 </r>
       <r>   -8.1100    1.0000 </r>
       <r>   -7.9075    1.0000 </r>
       <r>   -7.8642    1.0000 </r>
       <r>   -7.8585    1.0000 </r>
       <r>   -7.2641    1.0000 </r>
       <r>   -7.2595    1.0000 </r>
       <r>   -7.1491    1.0000 </r>
       <r>   -6.9026    1.0000 </r>
       <r>   -6.7541    1.0000 </r>
       <r>   -6.7432    1.0000 </r>
       <r>   -6.5467    1.0000 </r>
       <r>   -6.5427    1.0000 </r>
       <r>   -6.4930    1.0000 </r>
       <r>   -6.4073    1.0000 </r>
       <r>   -6.3994    1.0000 </r>
       <r>   -6.2605    1.0000 </r>
       <r>   -6.2438    1.0000 </r>
       <r>   -6.1401    1.0000 </r>
       <r>   -5.9677    1.0000 </r>
       <r>   -5.9605    1.0000 </r>
       <r>   -5.4500    1.0000 </r>
       <r>   -5.4087    1.0000 </r>
       <r>   -5.4045    1.0000 </r>
       <r>   -3.7338    0.0000 </r>
       <r>   -3.7019    0.0000 </r>
       <r>   -2.7780    0.0000 </r>
       <r>   -2.3781    0.0000 </r>
       <r>   -2.3253    0.0000 </r>
       <r>   -2.2341    0.0000 </r>
       <r>   -2.1737    0.0000 </r>
       <r>   -1.9337    0.0000 </r>
       <r>   -0.6380    0.0000 </r>
       <r>   -0.5828    0.0000 </r>
       <r>   -0.5543    0.0000 </r>
       <r>   -0.3793    0.0000 </r>
       <r>   -0.1954    0.0000 </r>
[...]
       <r>    1.3688    0.0000 </r>
       <r>    1.3794    0.0000 </r>
       <r>    1.6362    0.0000 </r>
       <r>    1.6401    0.0000 </r>
       <r>    1.7434    0.0000 </r>
       <r>    1.8671    0.0000 </r>
       <r>    1.9711    0.0000 </r>
       <r>    1.9956    0.0000 </r>
       <r>    2.0018    0.0000 </r>
       <r>    2.0884    0.0000 </r>
       <r>    2.0911    0.0000 </r>
       <r>    2.1074    0.0000 </r>
       <r>    2.1187    0.0000 </r>
       <r>    2.1575    0.0000 </r>
       <r>    2.1920    0.0000 </r>
       <r>    2.1944    0.0000 </r>
       <r>    2.2724    0.0000 </r>
       <r>    2.2842    0.0000 </r>
      </set>
     </set>
    </set>
   </array>
  </eigenvalues>
  <separator name="orbital magnetization" >
   <v name="MAGDIPOLOUT">      0.00000000      0.00000000      0.00000000</v>
  </separator>
  <dos>
   <i name="efermi">     -5.33123815 </i>
   <total>
    <array>
     <dimension dim="1">gridpoints</dimension>
     <dimension dim="2">spin</dimension>
     <field>energy</field>
     <field>total</field>
     <field>integrated</field>
     <set>
      <set comment="spin 1">
       <r>   -28.4884     0.0000     0.0000 </r>
       <r>   -28.3804     0.0000     0.0000 </r>
       <r>   -28.2723     0.0000     0.0000 </r>
       <r>   -28.1642     0.0000     0.0000 </r>
       <r>   -28.0561     0.0000     0.0000 </r>
       <r>   -27.9480     0.0000     0.0000 </r>
       <r>   -27.8399     0.0000     0.0000 </r>
       <r>   -27.7318     0.0000     0.0000 </r>
       <r>   -27.6238     0.0000     0.0000 </r>
       <r>   -27.5157     0.0000     0.0000 </r>
       <r>   -27.4076     0.0000     0.0000 </r>
       <r>   -27.2995     0.0000     0.0000 </r>
       <r>   -27.1914     0.0000     0.0000 </r>
       <r>   -27.0833     0.0000     0.0000 </r>
       <r>   -26.9752    55.5118     6.0000 </r>
       <r>   -26.8672     0.0000     6.0000 </r>
       <r>   -26.7591     0.0000     6.0000 </r>
       <r>   -26.6510     0.0000     6.0000 </r>
       <r>   -26.5429     0.0000     6.0000 </r>
       <r>   -26.4348     0.0000     6.0000 </r>
       <r>   -26.3267     0.0000     6.0000 </r>
       <r>   -26.2187     0.0000     6.0000 </r>
       <r>   -26.1106     0.0000     6.0000 </r>
       <r>   -26.0025     0.0000     6.0000 </r>
       <r>   -25.8944    18.5040     8.0000 </r>
       <r>   -25.7863    18.5040    10.0000 </r>
       <r>   -25.6782     0.0000    10.0000 </r>
       <r>   -25.5701     0.0000    10.0000 </r>
       <r>   -25.4621     0.0000    10.0000 </r>
       <r>   -25.3540     0.0000    10.0000 </r>
       <r>   -25.2459     0.0000    10.0000 </r>
       <r>   -25.1378     0.0000    10.0000 </r>
       <r>   -25.0297     0.0000    10.0000 </r>
       <r>   -24.9216    55.5114    16.0000 </r>
       <r>   -24.8136     0.0000    16.0000 </r>
       <r>   -24.7055    33.8263    19.6561 </r>
       <r>   -24.5974    15.6828    21.8951 </r>
       <r>   -24.4893     0.0000    22.0000 </r>
       <r>   -24.3812     0.0000    22.0000 </r>
       <r>   -24.2731     0.0000    22.0000 </r>
       <r>   -24.1650     0.0000    22.0000 </r>
       <r>   -24.0570     0.0000    22.0000 </r>
       <r>   -23.9489     0.0000    22.0000 </r>
       <r>   -23.8408     0.0000    22.0000 </r>
       <r>   -23.7327     0.0000    22.0000 </r>
       <r>   -23.6246     0.0000    22.0000 </r>
       <r>   -23.5165     0.0000    22.0000 </r>
       <r>   -23.4084     0.0000    22.0000 </r>
       <r>   -23.3004     0.0000    22.0000 </r>
       <r>   -23.1923    18.2748    23.9752 </r>
       <r>   -23.0842     9.5180    25.6621 </r>
       <r>   -22.9761     7.6837    26.8305 </r>
       <r>   -22.8680     4.1664    27.5170 </r>
       <r>   -22.7599     2.7756    28.0000 </r>
       <r>   -22.6519    22.8637    30.4712 </r>
       <r>   -22.5438    11.7965    32.0084 </r>
       <r>   -22.4357    31.1483    36.0000 </r>
       <r>   -22.3276     0.0000    36.0000 </r>
       <r>   -22.2195     0.0000    36.0000 </r>
       <r>   -22.1114     0.0000    36.0000 </r>
       <r>   -22.0033     0.0000    36.0000 </r>
       <r>   -21.8953     0.0000    36.0000 </r>
       <r>   -21.7872     0.0000    36.0000 </r>
       <r>   -21.6791     0.0000    36.0000 </r>
       <r>   -21.5710     0.0000    36.0000 </r>
       <r>   -21.4629     0.0000    36.0000 </r>
       <r>   -21.3548     0.0000    36.0000 </r>
       <r>   -21.2467     0.0000    36.0000 </r>
       <r>   -21.1387     0.0000    36.0000 </r>
       <r>   -21.0306     0.0000    36.0000 </r>
       <r>   -20.9225     0.0000    36.0000 </r>
       <r>   -20.8144     0.0000    36.0000 </r>
       <r>   -20.7063     0.0000    36.0000 </r>
       <r>   -20.5982     0.0000    36.0000 </r>
       <r>   -20.4902     0.0000    36.0000 </r>
       <r>   -20.3821     0.0000    36.0000 </r>
       <r>   -20.2740     0.0000    36.0000 </r>
       <r>   -20.1659     0.0000    36.0000 </r>
       <r>   -20.0578     0.0000    36.0000 </r>
       <r>   -19.9497    20.2293    38.1865 </r>
       <r>   -19.8416    17.8036    40.9910 </r>
       <r>   -19.7336     6.1680    42.0000 </r>
       <r>   -19.6255     0.0000    42.0000 </r>
       <r>   -19.5174     0.0000    42.0000 </r>
       <r>   -19.4093     0.0000    42.0000 </r>
       <r>   -19.3012     0.0000    42.0000 </r>
       <r>   -19.1931     0.0000    42.0000 </r>
       <r>   -19.0850     0.0000    42.0000 </r>
       <r>   -18.9770     0.0000    42.0000 </r>
       <r>   -18.8689     0.0000    42.0000 </r>
       <r>   -18.7608     0.0000    42.0000 </r>
       <r>   -18.6527     0.0000    42.0000 </r>
       <r>   -18.5446     0.0000    42.0000 </r>
       <r>   -18.4365     6.4170    42.6936 </r>
       <r>   -18.3285    12.0653    44.6374 </r>
       <r>   -18.2204     1.7676    44.8910 </r>
       <r>   -18.1123     3.4226    45.3033 </r>
       <r>   -18.0042     3.7008    46.0000 </r>
       <r>   -17.8961     3.5292    46.3814 </r>
       <r>   -17.7880     3.9817    46.9970 </r>
       <r>   -17.6799     0.9709    47.1716 </r>
       <r>   -17.5719     1.3361    47.3444 </r>
       <r>   -17.4638     2.6898    47.6574 </r>
       <r>   -17.3557    32.7419    53.5389 </r>
       <r>   -17.2476     1.5617    53.7688 </r>
       <r>   -17.1395     1.2336    54.0000 </r>
       <r>   -17.0314    10.8636    55.1742 </r>
       <r>   -16.9233     5.5085    55.9287 </r>
       <r>   -16.8153    23.4166    58.5310 </r>
       <r>   -16.7072     4.6260    60.0000 </r>
       <r>   -16.5991     0.0000    60.0000 </r>
       <r>   -16.4910     4.5389    60.4906 </r>
       <r>   -16.3829     4.3153    61.1664 </r>
       <r>   -16.2748     6.2395    62.0744 </r>
       <r>   -16.1668     4.1136    62.7446 </r>
       <r>   -16.0587     1.1927    62.8956 </r>
       <r>   -15.9506     1.0547    63.0473 </r>
       <r>   -15.8425     6.5556    63.8086 </r>
       <r>   -15.7344     0.0000    64.0000 </r>
       <r>   -15.6263     4.8733    64.5934 </r>
       <r>   -15.5182     1.2733    65.0376 </r>
       <r>   -15.4102     1.4339    65.2216 </r>
       <r>   -15.3021     1.5291    65.4319 </r>
       <r>   -15.1940    14.0285    67.0163 </r>
       <r>   -15.0859     4.0092    68.0000 </r>
       <r>   -14.9778     0.0000    68.0000 </r>
       <r>   -14.8697     0.0000    68.0000 </r>
       <r>   -14.7616     0.0000    68.0000 </r>
       <r>   -14.6536     0.0000    68.0000 </r>
       <r>   -14.5455     3.4847    68.3766 </r>
       <r>   -14.4374    17.1164    70.5500 </r>
       <r>   -14.3293     2.5438    70.9416 </r>
       <r>   -14.2212     8.6352    72.0000 </r>
       <r>   -14.1131     0.0000    72.0000 </r>
       <r>   -14.0051     3.2517    72.3515 </r>
       <r>   -13.8970     5.0295    73.6436 </r>
       <r>   -13.7889    15.8812    75.9832 </r>
       <r>   -13.6808     5.7885    77.1923 </r>
       <r>   -13.5727     6.4720    77.9995 </r>
       <r>   -13.4646     9.4783    79.0245 </r>
       <r>   -13.3565     1.5420    80.0000 </r>
       <r>   -13.2485     0.0000    80.0000 </r>
       <r>   -13.1404     6.9521    80.7514 </r>
       <r>   -13.0323    20.9459    84.2639 </r>
       <r>   -12.9242     2.3154    84.6169 </r>
       <r>   -12.8161     9.6072    85.7717 </r>
       <r>   -12.7080     6.4086    86.6927 </r>
       <r>   -12.6000    15.1992    89.1428 </r>
       <r>   -12.4919     4.9743    90.5376 </r>
       <r>   -12.3838     0.0000    92.0000 </r>
       <r>   -12.2757     0.0000    92.0000 </r>
       <r>   -12.1676     6.1555    92.6653 </r>
       <r>   -12.0595     6.7683    93.9982 </r>
       <r>   -11.9514    22.5019    96.4321 </r>
       <r>   -11.8434     4.8298    97.0887 </r>
       <r>   -11.7353     0.0000    98.0000 </r>
       <r>   -11.6272    25.6904   100.7767 </r>
       <r>   -11.5191     4.0092   102.0000 </r>
       <r>   -11.4110     0.0000   102.0000 </r>
       <r>   -11.3029     0.0000   102.0000 </r>
       <r>   -11.1948     2.6588   102.2874 </r>
       <r>   -11.0868    17.7749   106.2212 </r>
       <r>   -10.9787    42.2865   112.0039 </r>
       <r>   -10.8706    20.2335   115.3203 </r>
       <r>   -10.7625     1.9038   115.6391 </r>
       <r>   -10.6544    20.9711   118.0000 </r>
       <r>   -10.5463     5.9909   118.6475 </r>
       <r>   -10.4383    21.1467   122.2856 </r>
       <r>   -10.3302    14.9752   123.9853 </r>
       <r>   -10.2221     0.0000   124.0000 </r>
       <r>   -10.1140    18.1401   125.9607 </r>
       <r>   -10.0059     0.0000   126.0000 </r>
       <r>    -9.8978    28.0493   129.0317 </r>
       <r>    -9.7897     0.0000   130.0000 </r>
       <r>    -9.6817     0.0000   130.0000 </r>
       <r>    -9.5736     0.0000   130.0000 </r>
       <r>    -9.4655     5.4686   130.5911 </r>
       <r>    -9.3574    42.5639   136.0005 </r>
       <r>    -9.2493    37.0047   141.9997 </r>
       <r>    -9.1412     0.0000   142.0000 </r>
       <r>    -9.0331    16.3128   143.7632 </r>
       <r>    -8.9251     3.5059   146.8789 </r>
       <r>    -8.8170     9.2470   147.9995 </r>
       <r>    -8.7089    18.5040   150.0000 </r>
       <r>    -8.6008     8.1912   150.8853 </r>
       <r>    -8.4927     2.2666   151.2450 </r>
       <r>    -8.3846     1.9205   151.5409 </r>
       <r>    -8.2766    11.9987   152.9302 </r>
       <r>    -8.1685     5.0030   154.6074 </r>
       <r>    -8.0604    41.6000   159.9963 </r>
       <r>    -7.9523     0.0000   160.0000 </r>
       <r>    -7.8442    54.9038   165.9343 </r>
       <r>    -7.7361     0.0000   166.0000 </r>
       <r>    -7.6280     0.0000   166.0000 </r>
       <r>    -7.5200     0.0000   166.0000 </r>
       <r>    -7.4119     0.0000   166.0000 </r>
       <r>    -7.3038     0.0112   166.0012 </r>
       <r>    -7.1957    27.9304   170.0855 </r>
       <r>    -7.0876     8.0184   172.0000 </r>
       <r>    -6.9795     0.0000   172.0000 </r>
       <r>    -6.8714     7.3254   172.7918 </r>
       <r>    -6.7634    20.7597   175.3771 </r>
       <r>    -6.6553     0.0000   178.0000 </r>
       <r>    -6.5472     5.4202   178.5858 </r>
       <r>    -6.4391    26.5223   184.0000 </r>
       <r>    -6.3310    41.0691   188.4390 </r>
       <r>    -6.2229    26.0232   191.9794 </r>
       <r>    -6.1149     6.5814   192.7113 </r>
       <r>    -6.0068     3.7135   194.0014 </r>
       <r>    -5.8987    27.4475   198.0000 </r>
       <r>    -5.7906     0.0000   198.0000 </r>
       <r>    -5.6825     0.0000   198.0000 </r>
       <r>    -5.5744     0.0000   198.0000 </r>
       <r>    -5.4663     0.0870   198.0094 </r>
       <r>    -5.3583    45.6430   204.0000 </r>
       <r>    -5.2502     0.0000   204.0000 </r>
       <r>    -5.1421     0.0000   204.0000 </r>
       <r>    -5.0340     0.0000   204.0000 </r>
       <r>    -4.9259     0.0000   204.0000 </r>
       <r>    -4.8178     0.0000   204.0000 </r>
       <r>    -4.7097     0.0000   204.0000 </r>
       <r>    -4.6017     0.0000   204.0000 </r>
       <r>    -4.4936     0.0000   204.0000 </r>
       <r>    -4.3855     0.0000   204.0000 </r>
       <r>    -4.2774     0.0000   204.0000 </r>
       <r>    -4.1693     0.0000   204.0000 </r>
       <r>    -4.0612     0.0000   204.0000 </r>
       <r>    -3.9532     0.0000   204.0000 </r>
       <r>    -3.8451     0.0000   204.0000 </r>
       <r>    -3.7370     3.4577   204.3737 </r>
       <r>    -3.6289     3.0102   206.6920 </r>
       <r>    -3.5208     2.2131   207.0059 </r>
       <r>    -3.4127     6.1218   207.7617 </r>
       <r>    -3.3046     3.1708   208.2427 </r>
       <r>    -3.1966     5.0898   208.9168 </r>
       <r>    -3.0885     1.2302   209.1330 </r>
       <r>    -2.9804     1.2060   209.2970 </r>
       <r>    -2.8723     1.0023   209.4417 </r>
       <r>    -2.7642     1.1460   209.6239 </r>
       <r>    -2.6561     1.2946   209.8066 </r>
       <r>    -2.5481     0.9252   210.0000 </r>
       <r>    -2.4400    11.1717   211.2075 </r>
       <r>    -2.3319     7.2865   212.1876 </r>
       <r>    -2.2238    19.1701   215.7720 </r>
       <r>    -2.1157     5.8539   216.8994 </r>
       <r>    -2.0076     7.7332   218.3025 </r>
       <r>    -1.8995     0.6411   218.4360 </r>
       <r>    -1.7915     0.6485   218.5701 </r>
       <r>    -1.6834     0.6968   218.7086 </r>
       <r>    -1.5753     1.1214   218.8545 </r>
       <r>    -1.4672     1.1664   218.9927 </r>
       <r>    -1.3591     3.6357   219.4263 </r>
       <r>    -1.2510     2.2736   219.7791 </r>
       <r>    -1.1429     1.5454   220.0004 </r>
       <r>    -1.0349     2.3222   220.3510 </r>
       <r>    -0.9268     4.3867   220.9408 </r>
       <r>    -0.8187     1.2407   221.1341 </r>
       <r>    -0.7106     1.4831   221.3603 </r>
       <r>    -0.6025     3.8285   221.8471 </r>
       <r>    -0.4944    13.9223   225.6381 </r>
       <r>    -0.3864    12.1400   227.4788 </r>
       <r>    -0.2783     4.9077   228.3304 </r>
       <r>    -0.1702     7.9973   229.3644 </r>
       <r>    -0.0621    26.9820   232.6163 </r>
       <r>     0.0460     5.0955   233.5841 </r>
       <r>     0.1541     3.4319   234.1376 </r>
       <r>     0.2622     4.7638   234.7816 </r>
       <r>     0.3702     7.4536   235.8723 </r>
       <r>     0.4783     6.6255   236.8828 </r>
       <r>     0.5864     9.3173   238.3404 </r>
       <r>     0.6945    12.5125   239.9857 </r>
       <r>     0.8026    19.1398   242.5687 </r>
       <r>     0.9107     9.4065   243.9500 </r>
       <r>     1.0188    18.0523   246.0845 </r>
       <r>     1.1268    13.4345   248.1187 </r>
       <r>     1.2349    14.4669   250.3637 </r>
       <r>     1.3430    18.1861   253.0656 </r>
       <r>     1.4511    21.4736   256.6543 </r>
       <r>     1.5592    20.0825   259.0706 </r>
       <r>     1.6673    22.8573   262.0372 </r>
       <r>     1.7753    11.8154   264.5437 </r>
       <r>     1.8834    22.2862   268.3421 </r>
       <r>     1.9915    22.8685   271.6051 </r>
       <r>     2.0996    26.3329   275.3129 </r>
       <r>     2.2077    38.8360   280.3976 </r>
       <r>     2.3158    30.6080   285.2083 </r>
       <r>     2.4239    17.6885   287.7452 </r>
       <r>     2.5319     0.9252   288.0000 </r>
       <r>     2.6400     0.0000   288.0000 </r>
       <r>     2.7481     0.0000   288.0000 </r>
       <r>     2.8562     0.0000   288.0000 </r>
       <r>     2.9643     0.0000   288.0000 </r>
       <r>     3.0724     0.0000   288.0000 </r>
       <r>     3.1805     0.0000   288.0000 </r>
       <r>     3.2885     0.0000   288.0000 </r>
       <r>     3.3966     0.0000   288.0000 </r>
       <r>     3.5047     0.0000   288.0000 </r>
       <r>     3.6128     0.0000   288.0000 </r>
       <r>     3.7209     0.0000   288.0000 </r>
       <r>     3.8290     0.0000   288.0000 </r>
       <r>     3.9370     0.0000   288.0000 </r>
      </set>
     </set>
    </array>
   </total>
  </dos>
 </calculation>
 <structure name="finalpos" >
  <crystal>
   <varray name="basis" >
    <v>      14.30724587      -0.01705850       0.00000000 </v>
    <v>      -7.16828509      12.38916832       0.00000000 </v>
    <v>       0.00000000       0.00000000      20.00000000 </v>
   </varray>
   <i name="volume">   3542.65194249 </i>
   <varray name="rec_basis" >
    <v>       0.06994290       0.04046847       0.00000000 </v>
    <v>       0.00009630       0.08077139       0.00000000 </v>
    <v>       0.00000000       0.00000000       0.05000000 </v>
   </varray>
  </crystal>
  <varray name="positions" >
   <v>       0.07109314       0.61997879       0.58681654 </v>
   <v>       0.29402562       0.73328197       0.57059939 </v>
   <v>       0.28791674       0.56413990       0.57134160 </v>
   <v>       0.45740421       0.72776255       0.57177550 </v>
   <v>       0.73402965       0.28583184       0.57369093 </v>
   <v>       0.73554357       0.45318090       0.57371276 </v>
   <v>       0.56790407       0.28691654       0.57433588 </v>
   <v>       0.62079202       0.55880294       0.55359442 </v>
   <v>       0.46262317       0.06587265       0.55257966 </v>
   <v>       0.95456704       0.40072860       0.55238442 </v>
   <v>       0.40098765       0.45457702       0.58677069 </v>
   <v>       0.56676692       0.95113682       0.58743044 </v>
   <v>       0.12136305       0.56616584       0.56861997 </v>
   <v>       0.06237291       0.45653496       0.54846849 </v>
   <v>       0.11214791       0.39857173       0.51246204 </v>
   <v>       0.10251650       0.30725997       0.61521733 </v>
   <v>       0.24094089       0.62503535       0.57052421 </v>
   <v>       0.40210633       0.78054458       0.57076087 </v>
   <v>       0.39626098       0.61966588       0.57119166 </v>
   <v>       0.62563596       0.23655614       0.57372904 </v>
   <v>       0.78462473       0.39407925       0.57329885 </v>
   <v>       0.62721410       0.39529448       0.57368914 </v>
   <v>       0.45507539       0.55915775       0.56933528 </v>
   <v>       0.56635737       0.45425480       0.57111036 </v>
   <v>       0.56502687       0.61059187       0.54973335 </v>
   <v>       0.62332790       0.71887808       0.51418800 </v>
   <v>       0.71354239       0.80063436       0.61724733 </v>
   <v>       0.46261149       0.90007223       0.56889293 </v>
   <v>       0.56674561       0.11654303       0.57117084 </v>
   <v>       0.41135583       0.95817216       0.54842030 </v>
   <v>       0.30426882       0.90765940       0.51141299 </v>
   <v>       0.21899979       0.91630395       0.61282054 </v>
   <v>       0.90469729       0.45493187       0.57060086 </v>
   <v>       0.45506651       0.40120161       0.58541614 </v>
   <v>       0.61977333       0.05878308       0.58636282 </v>
   <v>       0.96339757       0.56590799       0.58565095 </v>
   <v>       0.02058832       0.28868766       0.62890837 </v>
   <v>       0.16409848       0.38108970       0.64015127 </v>
   <v>       0.11399556       0.23965905       0.62890612 </v>
   <v>       0.13891667       0.90340456       0.62540720 </v>
   <v>       0.28133680       0.99851596       0.62699922 </v>
   <v>       0.78112420       0.87990085       0.63111623 </v>
   <v>       0.73170910       0.73721561       0.63129549 </v>
   <v>       0.63942011       0.78832186       0.64170541 </v>
   <v>       0.23139814       0.85529788       0.63820879 </v>
   <v>       0.41069043       0.31495563       0.59661158 </v>
   <v>       0.70569436       0.10121620       0.59856625 </v>
   <v>       0.92168366       0.61001174       0.59767402 </v>
   <v>       0.13690779       0.41987421       0.45394433 </v>
   <v>       0.11796320       0.31830180       0.54361797 </v>
   <v>       0.30268012       0.88292850       0.45304156 </v>
   <v>       0.21698656       0.90133130       0.54125212 </v>
   <v>       0.60246878       0.72255245       0.45561527 </v>
   <v>       0.70346888       0.80505917       0.54559008 </v>
  </varray>
 </structure>
</modeling>
