<?xml version="1.0" encoding="ISO-8859-1"?>
<modeling>
 <generator>
  <i name="program" type="string">vasp </i>
  <i name="version" type="string">5.4.4.18Apr17-6-g9f103f2a35  </i>
  <i name="subversion" type="string">(build Jun 07 2020 16:50:00) complex            parallel </i>
  <i name="platform" type="string">LinuxIFC </i>
  <i name="date" type="string">2023 02 14 </i>
  <i name="time" type="string">06:37:19 </i>
 </generator>
 <incar>
  <i type="string" name="SYSTEM">Simulation for cell shape cell volume r</i>
  <i type="int" name="ISTART">     1</i>
  <i type="string" name="PREC">high</i>
  <i type="string" name="ALGO">48</i>
  <i type="int" name="ICHARG">    11</i>
  <i type="int" name="NELM">   200</i>
  <i type="int" name="IBRION">    -1</i>
  <i name="EDIFF">      0.00001000</i>
  <i name="EDIFFG">     -0.01000000</i>
  <i type="int" name="NSW">     0</i>
  <i type="int" name="ISIF">     2</i>
  <i name="ENCUT">    500.00000000</i>
  <i name="POTIM">      0.30000000</i>
  <i type="string" name="LREAL">A</i>
  <i type="int" name="ISMEAR">     0</i>
  <i name="SIGMA">      0.01000000</i>
  <i type="int" name="NWRITE">     0</i>
  <i type="logical" name="LWAVE"> F  </i>
  <i type="logical" name="LCHARG"> F  </i>
  <v type="int" name="KPOINT_BSE">    -1     0     0     0</v>
  <i type="int" name="NELM">   200</i>
  <i type="string" name="GGA">PE</i>
 </incar>
 <structure name="primitive_cell" >
  <crystal>
   <varray name="basis" >
    <v>      44.99961989      -0.06156824       0.00000000 </v>
    <v>     -22.55294799      39.02134395       0.00000000 </v>
    <v>       0.00000000       0.00000000      20.00000000 </v>
   </varray>
   <i name="volume">  35091.14200064 </i>
   <varray name="rec_basis" >
    <v>       0.02224000       0.01285393       0.00000000 </v>
    <v>       0.00003509       0.02564728       0.00000000 </v>
    <v>       0.00000000       0.00000000       0.05000000 </v>
   </varray>
  </crystal>
  <varray name="positions" >
   <v>      -0.07103609       0.17522639       0.36749618 </v>
   <v>      -0.07033036       0.16744362       0.42647590 </v>
   <v>      -0.04438643       0.17521978       0.46018022 </v>
   <v>      -0.10378100       0.14819789       0.46112428 </v>
   <v>      -0.11852777       0.18511470       0.43139141 </v>
   <v>      -0.12524545       0.16186313       0.45954705 </v>
   <v>      -0.11297922       0.11815953       0.49809486 </v>
   <v>      -0.07755064       0.10111642       0.43923062 </v>
   <v>      -0.09211396       0.10118055       0.49766105 </v>
   <v>      -0.15552209       0.14582547       0.49762403 </v>
   <v>      -0.05987590       0.08470601       0.43499299 </v>
   <v>      -0.14239272       0.10246365      -0.46701001 </v>
   <v>      -0.04763490       0.08628917       0.38682135 </v>
   <v>      -0.16264639       0.11619708      -0.46637814 </v>
   <v>      -0.17080469       0.18772920       0.46946607 </v>
   <v>      -0.17772330       0.16075899      -0.49680692 </v>
   <v>      -0.08912015       0.08403995      -0.44599305 </v>
   <v>      -0.05688187       0.06591050       0.48792272 </v>
   <v>      -0.09300421       0.11589985      -0.35928463 </v>
   <v>      -0.18581266       0.10303466      -0.43560643 </v>
   <v>      -0.07233292       0.06549557      -0.45092946 </v>
   <v>      -0.10182316       0.08666403      -0.37934898 </v>
   <v>      -0.19932725       0.14885242      -0.46115945 </v>
   <v>      -0.19064505       0.20327073       0.47820418 </v>
   <v>      -0.17288664       0.23751567       0.47191082 </v>
   <v>      -0.02295541       0.05289218       0.43229472 </v>
   <v>      -0.03752235       0.04805704       0.47931400 </v>
   <v>      -0.07051077       0.05147664      -0.40818265 </v>
   <v>      -0.11906743       0.05961606      -0.34821811 </v>
   <v>      -0.22475751       0.18373321       0.49020290 </v>
   <v>      -0.19150763       0.25264727       0.48418023 </v>
   <v>      -0.03770958       0.02785562      -0.47563836 </v>
   <v>      -0.24018086       0.20219027      -0.49896297 </v>
   <v>      -0.17598848       0.28784718       0.47485894 </v>
   <v>      -0.22488482       0.23660935      -0.49880230 </v>
   <v>      -0.01729940       0.01292368      -0.48053209 </v>
   <v>       0.01688579       0.03403478      -0.48119652 </v>
   <v>      -0.17296476       0.30753959      -0.47638053 </v>
   <v>      -0.29381339       0.16347816       0.42435635 </v>
   <v>      -0.27484527       0.18648226      -0.48274261 </v>
   <v>      -0.17874646       0.29802599      -0.42446371 </v>
   <v>      -0.03396980      -0.02159027      -0.47999195 </v>
   <v>      -0.16617894       0.34127490       0.40520768 </v>
   <v>      -0.29884920       0.16954461       0.47510526 </v>
   <v>      -0.16404069       0.34321618      -0.48639826 </v>
   <v>       0.03478834       0.01744903      -0.48083582 </v>
   <v>      -0.16328255       0.35643429       0.44978682 </v>
   <v>       0.07022184       0.03781886      -0.47610101 </v>
   <v>      -0.01288336      -0.03460774      -0.48001963 </v>
   <v>       0.02167491      -0.01666773      -0.48025638 </v>
   <v>      -0.15994360       0.36409212      -0.43097469 </v>
   <v>      -0.33416959       0.16109828       0.49006989 </v>
   <v>      -0.15984255       0.35502559      -0.38026880 </v>
   <v>       0.09034549       0.03784455       0.47879305 </v>
   <v>       0.08066086       0.02350292       0.43153289 </v>
   <v>      -0.35678147       0.13269266       0.39841195 </v>
   <v>      -0.05235045      -0.08042086       0.43233267 </v>
   <v>      -0.14300373       0.40286325       0.33566913 </v>
   <v>      -0.16097116       0.38817407       0.44524709 </v>
   <v>      -0.32107614       0.18837525      -0.41556733 </v>
   <v>      -0.36079022       0.14405195       0.44340044 </v>
   <v>      -0.02781449      -0.06997584      -0.47501862 </v>
   <v>      -0.34108000       0.17466087      -0.45281067 </v>
   <v>      -0.04771614      -0.09009224       0.47960450 </v>
   <v>       0.12765489       0.05708261       0.48771836 </v>
   <v>      -0.16459961       0.39944280       0.37772644 </v>
   <v>       0.12658498       0.06973798      -0.40787378 </v>
   <v>      -0.15679425       0.39501650      -0.43586374 </v>
   <v>       0.14257406       0.07193193      -0.45067124 </v>
   <v>      -0.15841667       0.40693957      -0.49644201 </v>
   <v>       0.13911376       0.04866279       0.38626802 </v>
   <v>       0.14965739       0.06045820       0.43481485 </v>
   <v>      -0.18977105       0.40304210       0.36846556 </v>
   <v>      -0.39156418       0.14142708       0.44935270 </v>
   <v>      -0.08538212      -0.13854187       0.38655324 </v>
   <v>      -0.06549805      -0.12735510       0.48804898 </v>
   <v>      -0.37269929       0.17256483      -0.44776183 </v>
   <v>       0.17796556       0.08854954      -0.44528143 </v>
   <v>       0.18335341       0.11757238      -0.34635346 </v>
   <v>       0.18382250       0.07799187       0.43951773 </v>
   <v>      -0.08397104      -0.14918966       0.43483609 </v>
   <v>      -0.39758334       0.15634884      -0.49840527 </v>
   <v>      -0.15865959       0.43963018      -0.49783440 </v>
   <v>       0.19833761       0.09201441       0.49838373 </v>
   <v>      -0.05167299      -0.12655880      -0.40766603 </v>
   <v>       0.19302128       0.10043310      -0.37813470 </v>
   <v>      -0.14266204       0.46113221       0.45112811 </v>
   <v>      -0.06537804      -0.14241421      -0.45067533 </v>
   <v>      -0.37719243       0.19115363      -0.39119242 </v>
   <v>      -0.37502071       0.18160935      -0.33443726 </v>
   <v>      -0.22007903       0.39569073      -0.41031813 </v>
   <v>      -0.40151651       0.19039845       0.36987138 </v>
   <v>      -0.19576062       0.42386271      -0.39355813 </v>
   <v>      -0.10026530      -0.18330827       0.43891532 </v>
   <v>      -0.38113218       0.21563144      -0.40560849 </v>
   <v>       0.25011704       0.14152204      -0.46390246 </v>
   <v>      -0.17584423       0.44771767      -0.44835512 </v>
   <v>       0.23627997       0.11276312       0.49926632 </v>
   <v>      -0.43025078       0.16483441       0.37745018 </v>
   <v>      -0.43052713       0.15618875      -0.49718850 </v>
   <v>       0.21302496       0.09102018      -0.35835698 </v>
   <v>      -0.08382179      -0.17779134      -0.44589732 </v>
   <v>      -0.18738938       0.43471568      -0.33594528 </v>
   <v>      -0.14498873       0.48940055       0.44523406 </v>
   <v>      -0.44780464       0.14376519       0.33410340 </v>
   <v>      -0.17524909      -0.22574199       0.45740796 </v>
   <v>      -0.10056349      -0.19796471       0.49744056 </v>
   <v>      -0.13272118      -0.49474229       0.40114706 </v>
   <v>      -0.44593687       0.16004870       0.44452012 </v>
   <v>       0.28418632       0.16172140      -0.46296306 </v>
   <v>       0.25714982       0.10417713       0.46075529 </v>
   <v>       0.29422537       0.18431871      -0.43066250 </v>
   <v>      -0.44476520       0.15353928      -0.43690739 </v>
   <v>      -0.17758238       0.47739041      -0.45320457 </v>
   <v>       0.24296490       0.07138084       0.42392080 </v>
   <v>      -0.08682612      -0.19305712      -0.37902476 </v>
   <v>      -0.16614386      -0.24281631       0.42377019 </v>
   <v>       0.22578700       0.04487749       0.45677795 </v>
   <v>      -0.16273072       0.49856642       0.49091336 </v>
   <v>       0.25062390       0.07316170       0.36415383 </v>
   <v>      -0.17250469      -0.25040290       0.36407085 </v>
   <v>      -0.05996323      -0.18292278      -0.34697375 </v>
   <v>      -0.11620936      -0.21375358      -0.35972932 </v>
   <v>       0.30670551       0.15522588       0.49944835 </v>
   <v>       0.29237002       0.12562374       0.45953104 </v>
   <v>      -0.11736165      -0.23582490       0.49755443 </v>
   <v>      -0.19193230       0.48331979      -0.41689056 </v>
   <v>      -0.47521276       0.16269607       0.44888990 </v>
   <v>      -0.14704954      -0.25681460       0.45952730 </v>
   <v>      -0.47238262       0.15703613      -0.43211794 </v>
   <v>       0.30891989       0.11938699       0.43015844 </v>
   <v>      -0.48685393       0.16662462       0.40443424 </v>
   <v>      -0.17045830      -0.47412637       0.47599009 </v>
   <v>      -0.48831792       0.16246605      -0.48742635 </v>
   <v>      -0.48207773       0.15614319      -0.38154735 </v>
   <v>      -0.10187144      -0.24941926      -0.46671864 </v>
   <v>      -0.16385817      -0.46275822       0.42548195 </v>
   <v>       0.34395068       0.17732800      -0.49499895 </v>
   <v>       0.35375224       0.19834374      -0.45807663 </v>
   <v>      -0.16062505      -0.29194216       0.45807512 </v>
   <v>      -0.18738736      -0.46693412      -0.48217161 </v>
   <v>       0.36397156       0.17097656       0.46974392 </v>
   <v>      -0.18365005      -0.30860878       0.42926801 </v>
   <v>      -0.11553375      -0.28340612      -0.46600773 </v>
   <v>       0.48510411       0.17166035      -0.47734110 </v>
   <v>      -0.14488284      -0.30605470       0.49722355 </v>
   <v>       0.48067898       0.17643994      -0.42516911 </v>
   <v>      -0.20249345      -0.44754029      -0.49874004 </v>
   <v>       0.46939017       0.17598036       0.47369984 </v>
   <v>      -0.10256400      -0.29328422      -0.43447844 </v>
   <v>       0.41411563       0.22472735       0.49051902 </v>
   <v>       0.39944353       0.19070020       0.47813480 </v>
   <v>      -0.23697665      -0.46637262      -0.49905164 </v>
   <v>      -0.39624545       0.38196398      -0.40687656 </v>
   <v>      -0.18352626      -0.41363292       0.49051300 </v>
   <v>      -0.15996246      -0.34321634      -0.49677628 </v>
   <v>       0.46288065       0.29382995       0.42522709 </v>
   <v>      -0.40223398       0.40161449       0.37050973 </v>
   <v>       0.41586580       0.17292523       0.47116918 </v>
   <v>       0.44972088       0.19147796       0.48322732 </v>
   <v>       0.46721006       0.22477794      -0.49968804 </v>
   <v>       0.44811708       0.24007454      -0.49908956 </v>
   <v>      -0.18671698      -0.36336388       0.46888152 </v>
   <v>      -0.25259654      -0.44872197       0.48386492 </v>
   <v>       0.47420622       0.29872402       0.47579930 </v>
   <v>      -0.42496468       0.37712243      -0.39163097 </v>
   <v>       0.46725315       0.27463057      -0.48245565 </v>
   <v>       0.49491378       0.35658632       0.39969595 </v>
   <v>      -0.14842300      -0.35281422      -0.46016457 </v>
   <v>      -0.28785562      -0.46818584       0.47443594 </v>
   <v>      -0.34086014       0.48738494       0.40480029 </v>
   <v>      -0.39896902       0.43033539       0.37783840 </v>
   <v>      -0.20268812      -0.39876254       0.47802467 </v>
   <v>      -0.30789761      -0.48429497      -0.47680035 </v>
   <v>      -0.29865929      -0.48011620      -0.42464421 </v>
   <v>      -0.35641537       0.47564727       0.44926715 </v>
   <v>      -0.48406245       0.32088192      -0.41544662 </v>
   <v>      -0.38819658       0.44609551       0.44491665 </v>
   <v>      -0.44845780       0.37253549      -0.44759611 </v>
   <v>      -0.34364620       0.48890433      -0.48705940 </v>
   <v>      -0.43660285       0.37416794      -0.33455489 </v>
   <v>      -0.49879948       0.33398073       0.49081656 </v>
   <v>      -0.48947433       0.36060692       0.44437930 </v>
   <v>      -0.23698091      -0.41494159       0.47153596 </v>
   <v>      -0.47800102       0.34088232      -0.45247932 </v>
   <v>      -0.40742256       0.43055871      -0.49677354 </v>
   <v>      -0.36498704       0.47278858      -0.43175411 </v>
   <v>      -0.44010433       0.39744780      -0.49795299 </v>
   <v>      -0.39595054       0.44488955      -0.43650639 </v>
   <v>      -0.40231674       0.44784239       0.33423002 </v>
   <v>      -0.35626508       0.48260308      -0.38121363 </v>
   <v>      -0.46130498       0.39140166       0.45018107 </v>
  </varray>
 </structure>
 <varray name="primitive_index" >
  <v type="int" >        1 </v>
  <v type="int" >       50 </v>
  <v type="int" >        2 </v>
  <v type="int" >      121 </v>
  <v type="int" >       73 </v>
  <v type="int" >      122 </v>
  <v type="int" >      159 </v>
  <v type="int" >       49 </v>
  <v type="int" >      160 </v>
  <v type="int" >      157 </v>
  <v type="int" >      124 </v>
  <v type="int" >       61 </v>
  <v type="int" >       74 </v>
  <v type="int" >      158 </v>
  <v type="int" >       34 </v>
  <v type="int" >      163 </v>
  <v type="int" >      161 </v>
  <v type="int" >      123 </v>
  <v type="int" >       14 </v>
  <v type="int" >       92 </v>
  <v type="int" >      162 </v>
  <v type="int" >       62 </v>
  <v type="int" >       93 </v>
  <v type="int" >      112 </v>
  <v type="int" >       31 </v>
  <v type="int" >       75 </v>
  <v type="int" >      125 </v>
  <v type="int" >       91 </v>
  <v type="int" >       13 </v>
  <v type="int" >       33 </v>
  <v type="int" >      113 </v>
  <v type="int" >       30 </v>
  <v type="int" >      114 </v>
  <v type="int" >       36 </v>
  <v type="int" >       32 </v>
  <v type="int" >      110 </v>
  <v type="int" >       25 </v>
  <v type="int" >      182 </v>
  <v type="int" >       90 </v>
  <v type="int" >       35 </v>
  <v type="int" >      102 </v>
  <v type="int" >       26 </v>
  <v type="int" >       82 </v>
  <v type="int" >      156 </v>
  <v type="int" >      180 </v>
  <v type="int" >      109 </v>
  <v type="int" >      141 </v>
  <v type="int" >       28 </v>
  <v type="int" >      111 </v>
  <v type="int" >       27 </v>
  <v type="int" >      181 </v>
  <v type="int" >      150 </v>
  <v type="int" >      101 </v>
  <v type="int" >      135 </v>
  <v type="int" >       81 </v>
  <v type="int" >       89 </v>
  <v type="int" >       78 </v>
  <v type="int" >        7 </v>
  <v type="int" >      140 </v>
  <v type="int" >      106 </v>
  <v type="int" >      151 </v>
  <v type="int" >       29 </v>
  <v type="int" >      189 </v>
  <v type="int" >      130 </v>
  <v type="int" >      133 </v>
  <v type="int" >       56 </v>
  <v type="int" >       97 </v>
  <v type="int" >       67 </v>
  <v type="int" >      176 </v>
  <v type="int" >      139 </v>
  <v type="int" >       80 </v>
  <v type="int" >      134 </v>
  <v type="int" >        8 </v>
  <v type="int" >       59 </v>
  <v type="int" >       77 </v>
  <v type="int" >      128 </v>
  <v type="int" >      188 </v>
  <v type="int" >      175 </v>
  <v type="int" >       17 </v>
  <v type="int" >       53 </v>
  <v type="int" >      129 </v>
  <v type="int" >      152 </v>
  <v type="int" >      138 </v>
  <v type="int" >      174 </v>
  <v type="int" >       94 </v>
  <v type="int" >       66 </v>
  <v type="int" >       55 </v>
  <v type="int" >      169 </v>
  <v type="int" >       72 </v>
  <v type="int" >       23 </v>
  <v type="int" >       20 </v>
  <v type="int" >       12 </v>
  <v type="int" >       68 </v>
  <v type="int" >       51 </v>
  <v type="int" >       24 </v>
  <v type="int" >       65 </v>
  <v type="int" >      178 </v>
  <v type="int" >      173 </v>
  <v type="int" >       60 </v>
  <v type="int" >      153 </v>
  <v type="int" >       18 </v>
  <v type="int" >      168 </v>
  <v type="int" >       19 </v>
  <v type="int" >      137 </v>
  <v type="int" >       11 </v>
  <v type="int" >        4 </v>
  <v type="int" >      167 </v>
  <v type="int" >       83 </v>
  <v type="int" >      154 </v>
  <v type="int" >      172 </v>
  <v type="int" >      131 </v>
  <v type="int" >       98 </v>
  <v type="int" >       71 </v>
  <v type="int" >      179 </v>
  <v type="int" >       54 </v>
  <v type="int" >       64 </v>
  <v type="int" >       52 </v>
  <v type="int" >        6 </v>
  <v type="int" >      136 </v>
  <v type="int" >        5 </v>
  <v type="int" >        3 </v>
  <v type="int" >       15 </v>
  <v type="int" >       16 </v>
  <v type="int" >      171 </v>
  <v type="int" >      132 </v>
  <v type="int" >      166 </v>
  <v type="int" >      100 </v>
  <v type="int" >      155 </v>
  <v type="int" >      126 </v>
  <v type="int" >      191 </v>
  <v type="int" >       79 </v>
  <v type="int" >       88 </v>
  <v type="int" >      142 </v>
  <v type="int" >      190 </v>
  <v type="int" >      107 </v>
  <v type="int" >       63 </v>
  <v type="int" >       84 </v>
  <v type="int" >      177 </v>
  <v type="int" >       99 </v>
  <v type="int" >      127 </v>
  <v type="int" >       41 </v>
  <v type="int" >       46 </v>
  <v type="int" >       76 </v>
  <v type="int" >      165 </v>
  <v type="int" >      192 </v>
  <v type="int" >      164 </v>
  <v type="int" >      108 </v>
  <v type="int" >      117 </v>
  <v type="int" >       48 </v>
  <v type="int" >       95 </v>
  <v type="int" >       45 </v>
  <v type="int" >      118 </v>
  <v type="int" >       38 </v>
  <v type="int" >       22 </v>
  <v type="int" >       39 </v>
  <v type="int" >      170 </v>
  <v type="int" >       87 </v>
  <v type="int" >       10 </v>
  <v type="int" >       43 </v>
  <v type="int" >      119 </v>
  <v type="int" >       44 </v>
  <v type="int" >      120 </v>
  <v type="int" >       40 </v>
  <v type="int" >      116 </v>
  <v type="int" >      149 </v>
  <v type="int" >       70 </v>
  <v type="int" >       47 </v>
  <v type="int" >       86 </v>
  <v type="int" >       96 </v>
  <v type="int" >       42 </v>
  <v type="int" >       85 </v>
  <v type="int" >       58 </v>
  <v type="int" >      115 </v>
  <v type="int" >      187 </v>
  <v type="int" >      105 </v>
  <v type="int" >      148 </v>
  <v type="int" >      103 </v>
  <v type="int" >      147 </v>
  <v type="int" >      183 </v>
  <v type="int" >      185 </v>
  <v type="int" >       21 </v>
  <v type="int" >      143 </v>
  <v type="int" >      144 </v>
  <v type="int" >       37 </v>
  <v type="int" >      184 </v>
  <v type="int" >      146 </v>
  <v type="int" >      186 </v>
  <v type="int" >      145 </v>
  <v type="int" >       69 </v>
  <v type="int" >        9 </v>
  <v type="int" >      104 </v>
  <v type="int" >       57 </v>
 </varray>
 <kpoints>
  <generation param="listgenerated">
   <i name="divisions" type="int">      20 </i>
   <v>       0.00000000       0.00000000       0.00000000 </v>
   <v>       0.50000000       0.00000000       0.00000000 </v>
   <v>       0.33333333       0.33333333       0.00000000 </v>
   <v>       0.00000000       0.00000000       0.00000000 </v>
  </generation>
  <varray name="kpointlist" >
   <v>       0.00000000       0.00000000       0.00000000 </v>
   <v>       0.02631579       0.00000000       0.00000000 </v>
   <v>       0.05263158       0.00000000       0.00000000 </v>
   <v>       0.07894737       0.00000000       0.00000000 </v>
   <v>       0.10526316       0.00000000       0.00000000 </v>
   <v>       0.13157895       0.00000000       0.00000000 </v>
   <v>       0.15789474       0.00000000       0.00000000 </v>
   <v>       0.18421053       0.00000000       0.00000000 </v>
   <v>       0.21052632       0.00000000       0.00000000 </v>
   <v>       0.23684211       0.00000000       0.00000000 </v>
   <v>       0.26315789       0.00000000       0.00000000 </v>
   <v>       0.28947368       0.00000000       0.00000000 </v>
   <v>       0.31578947       0.00000000       0.00000000 </v>
   <v>       0.34210526       0.00000000       0.00000000 </v>
   <v>       0.36842105       0.00000000       0.00000000 </v>
   <v>       0.39473684       0.00000000       0.00000000 </v>
   <v>       0.42105263       0.00000000       0.00000000 </v>
   <v>       0.44736842       0.00000000       0.00000000 </v>
   <v>       0.47368421       0.00000000       0.00000000 </v>
   <v>       0.50000000       0.00000000       0.00000000 </v>
   <v>       0.50000000       0.00000000       0.00000000 </v>
   <v>       0.49122807       0.01754386       0.00000000 </v>
   <v>       0.48245614       0.03508772       0.00000000 </v>
   <v>       0.47368421       0.05263158       0.00000000 </v>
   <v>       0.46491228       0.07017544       0.00000000 </v>
   <v>       0.45614035       0.08771930       0.00000000 </v>
   <v>       0.44736842       0.10526316       0.00000000 </v>
   <v>       0.43859649       0.12280702       0.00000000 </v>
   <v>       0.42982456       0.14035088       0.00000000 </v>
   <v>       0.42105263       0.15789474       0.00000000 </v>
   <v>       0.41228070       0.17543860       0.00000000 </v>
   <v>       0.40350877       0.19298246       0.00000000 </v>
   <v>       0.39473684       0.21052632       0.00000000 </v>
   <v>       0.38596491       0.22807018       0.00000000 </v>
   <v>       0.37719298       0.24561404       0.00000000 </v>
   <v>       0.36842105       0.26315789       0.00000000 </v>
   <v>       0.35964912       0.28070175       0.00000000 </v>
   <v>       0.35087719       0.29824561       0.00000000 </v>
   <v>       0.34210526       0.31578947       0.00000000 </v>
   <v>       0.33333333       0.33333333       0.00000000 </v>
   <v>       0.33333333       0.33333333       0.00000000 </v>
   <v>       0.31578947       0.31578947       0.00000000 </v>
   <v>       0.29824561       0.29824561       0.00000000 </v>
   <v>       0.28070175       0.28070175       0.00000000 </v>
   <v>       0.26315789       0.26315789       0.00000000 </v>
   <v>       0.24561404       0.24561404       0.00000000 </v>
   <v>       0.22807018       0.22807018       0.00000000 </v>
   <v>       0.21052632       0.21052632       0.00000000 </v>
   <v>       0.19298246       0.19298246       0.00000000 </v>
   <v>       0.17543860       0.17543860       0.00000000 </v>
   <v>       0.15789474       0.15789474       0.00000000 </v>
   <v>       0.14035088       0.14035088       0.00000000 </v>
   <v>       0.12280702       0.12280702       0.00000000 </v>
   <v>       0.10526316       0.10526316       0.00000000 </v>
   <v>       0.08771930       0.08771930       0.00000000 </v>
   <v>       0.07017544       0.07017544       0.00000000 </v>
   <v>       0.05263158       0.05263158       0.00000000 </v>
   <v>       0.03508772       0.03508772       0.00000000 </v>
   <v>       0.01754386       0.01754386       0.00000000 </v>
   <v>       0.00000000       0.00000000       0.00000000 </v>
  </varray>
  <varray name="weights" >
   <v>       0.01666667 </v>
   <v>       0.01666667 </v>
   <v>       0.01666667 </v>
   <v>       0.01666667 </v>
   <v>       0.01666667 </v>
   <v>       0.01666667 </v>
   <v>       0.01666667 </v>
   <v>       0.01666667 </v>
   <v>       0.01666667 </v>
   <v>       0.01666667 </v>
   <v>       0.01666667 </v>
   <v>       0.01666667 </v>
   <v>       0.01666667 </v>
   <v>       0.01666667 </v>
   <v>       0.01666667 </v>
   <v>       0.01666667 </v>
   <v>       0.01666667 </v>
   <v>       0.01666667 </v>
   <v>       0.01666667 </v>
   <v>       0.01666667 </v>
   <v>       0.01666667 </v>
   <v>       0.01666667 </v>
   <v>       0.01666667 </v>
   <v>       0.01666667 </v>
   <v>       0.01666667 </v>
   <v>       0.01666667 </v>
   <v>       0.01666667 </v>
   <v>       0.01666667 </v>
   <v>       0.01666667 </v>
   <v>       0.01666667 </v>
   <v>       0.01666667 </v>
   <v>       0.01666667 </v>
   <v>       0.01666667 </v>
   <v>       0.01666667 </v>
   <v>       0.01666667 </v>
   <v>       0.01666667 </v>
   <v>       0.01666667 </v>
   <v>       0.01666667 </v>
   <v>       0.01666667 </v>
   <v>       0.01666667 </v>
   <v>       0.01666667 </v>
   <v>       0.01666667 </v>
   <v>       0.01666667 </v>
   <v>       0.01666667 </v>
   <v>       0.01666667 </v>
   <v>       0.01666667 </v>
   <v>       0.01666667 </v>
   <v>       0.01666667 </v>
   <v>       0.01666667 </v>
   <v>       0.01666667 </v>
   <v>       0.01666667 </v>
   <v>       0.01666667 </v>
   <v>       0.01666667 </v>
   <v>       0.01666667 </v>
   <v>       0.01666667 </v>
   <v>       0.01666667 </v>
   <v>       0.01666667 </v>
   <v>       0.01666667 </v>
   <v>       0.01666667 </v>
   <v>       0.01666667 </v>
  </varray>
 </kpoints>
 <parameters>
  <separator name="general" >
   <i type="string" name="SYSTEM">Simulation for cell shape cell volume r</i>
   <i type="logical" name="LCOMPAT"> F  </i>
  </separator>
  <separator name="electronic" >
   <i type="string" name="PREC">high</i>
   <i name="ENMAX">    500.00000000</i>
   <i name="ENAUG">    644.87300000</i>
   <i name="EDIFF">      0.00001000</i>
   <i type="int" name="IALGO">    38</i>
   <i type="int" name="IWAVPR">    10</i>
   <i type="int" name="NBANDS">   480</i>
   <i name="NELECT">    756.00000000</i>
   <i type="int" name="TURBO">     0</i>
   <i type="int" name="IRESTART">     0</i>
   <i type="int" name="NREBOOT">     0</i>
   <i type="int" name="NMIN">     0</i>
   <i name="EREF">      0.00000000</i>
   <separator name="electronic smearing" >
    <i type="int" name="ISMEAR">     0</i>
    <i name="SIGMA">      0.01000000</i>
    <i name="KSPACING">      0.50000000</i>
    <i type="logical" name="KGAMMA"> T  </i>
   </separator>
   <separator name="electronic projectors" >
    <i type="logical" name="LREAL"> T  </i>
    <v name="ROPT">     -0.00040000     -0.00040000     -0.00040000     -0.00040000</v>
    <i type="int" name="LMAXPAW">  -100</i>
    <i type="int" name="LMAXMIX">     2</i>
    <i type="logical" name="NLSPLINE"> F  </i>
   </separator>
   <separator name="electronic startup" >
    <i type="int" name="ISTART">     1</i>
    <i type="int" name="ICHARG">    11</i>
    <i type="int" name="INIWAV">     1</i>
   </separator>
   <separator name="electronic spin" >
    <i type="int" name="ISPIN">     1</i>
    <i type="logical" name="LNONCOLLINEAR"> F  </i>
    <v name="MAGMOM">      1.00000000      1.00000000      1.00000000      1.00000000      1.00000000      1.00000000      1.00000000      1.00000000      1.00000000      1.00000000      1.00000000      1.00000000      1.00000000      1.00000000      1.00000000      1.00000000      1.00000000      1.00000000      1.00000000      1.00000000
      1.00000000      1.00000000      1.00000000      1.00000000      1.00000000      1.00000000      1.00000000      1.00000000      1.00000000      1.00000000      1.00000000      1.00000000      1.00000000      1.00000000      1.00000000      1.00000000      1.00000000      1.00000000      1.00000000      1.00000000
      1.00000000      1.00000000      1.00000000      1.00000000      1.00000000      1.00000000      1.00000000      1.00000000      1.00000000      1.00000000      1.00000000      1.00000000      1.00000000      1.00000000      1.00000000      1.00000000      1.00000000      1.00000000      1.00000000      1.00000000
      1.00000000      1.00000000      1.00000000      1.00000000      1.00000000      1.00000000      1.00000000      1.00000000      1.00000000      1.00000000      1.00000000      1.00000000      1.00000000      1.00000000      1.00000000      1.00000000      1.00000000      1.00000000      1.00000000      1.00000000
      1.00000000      1.00000000      1.00000000      1.00000000      1.00000000      1.00000000      1.00000000      1.00000000      1.00000000      1.00000000      1.00000000      1.00000000      1.00000000      1.00000000      1.00000000      1.00000000      1.00000000      1.00000000      1.00000000      1.00000000
      1.00000000      1.00000000      1.00000000      1.00000000      1.00000000      1.00000000      1.00000000      1.00000000      1.00000000      1.00000000      1.00000000      1.00000000      1.00000000      1.00000000      1.00000000      1.00000000      1.00000000      1.00000000      1.00000000      1.00000000
      1.00000000      1.00000000      1.00000000      1.00000000      1.00000000      1.00000000      1.00000000      1.00000000      1.00000000      1.00000000      1.00000000      1.00000000      1.00000000      1.00000000      1.00000000      1.00000000      1.00000000      1.00000000      1.00000000      1.00000000
      1.00000000      1.00000000      1.00000000      1.00000000      1.00000000      1.00000000      1.00000000      1.00000000      1.00000000      1.00000000      1.00000000      1.00000000      1.00000000      1.00000000      1.00000000      1.00000000      1.00000000      1.00000000      1.00000000      1.00000000
      1.00000000      1.00000000      1.00000000      1.00000000      1.00000000      1.00000000      1.00000000      1.00000000      1.00000000      1.00000000      1.00000000      1.00000000      1.00000000      1.00000000      1.00000000      1.00000000      1.00000000      1.00000000      1.00000000      1.00000000
      1.00000000      1.00000000      1.00000000      1.00000000      1.00000000      1.00000000      1.00000000      1.00000000      1.00000000      1.00000000      1.00000000      1.00000000</v>
    <i name="NUPDOWN">     -1.00000000</i>
    <i type="logical" name="LSORBIT"> F  </i>
    <v name="SAXIS">      0.00000000      0.00000000      1.00000000</v>
    <i type="logical" name="LSPIRAL"> F  </i>
    <v name="QSPIRAL">      0.00000000      0.00000000      0.00000000</v>
    <i type="logical" name="LZEROZ"> F  </i>
   </separator>
   <separator name="electronic exchange-correlation" >
    <i type="logical" name="LASPH"> F  </i>
    <i type="logical" name="LMETAGGA"> F  </i>
   </separator>
   <separator name="electronic convergence" >
    <i type="int" name="NELM">   200</i>
    <i type="int" name="NELMDL">     0</i>
    <i type="int" name="NELMIN">     2</i>
    <i name="ENINI">    500.00000000</i>
    <separator name="electronic convergence detail" >
     <i type="logical" name="LDIAG"> T  </i>
     <i type="logical" name="LSUBROT"> F  </i>
     <i name="WEIMIN">      0.00000000</i>
     <i name="EBREAK">      0.00000001</i>
     <i name="DEPER">      0.30000000</i>
     <i type="int" name="NRMM">     4</i>
     <i name="TIME">      0.40000000</i>
    </separator>
   </separator>
   <separator name="electronic mixer" >
    <i name="AMIX">      0.40000000</i>
    <i name="BMIX">      1.00000000</i>
    <i name="AMIN">      0.10000000</i>
    <i name="AMIX_MAG">      1.60000000</i>
    <i name="BMIX_MAG">      1.00000000</i>
    <separator name="electronic mixer details" >
     <i type="int" name="IMIX">     4</i>
     <i type="logical" name="MIXFIRST"> F  </i>
     <i type="int" name="MAXMIX">   -45</i>
     <i name="WC">    100.00000000</i>
     <i type="int" name="INIMIX">     1</i>
     <i type="int" name="MIXPRE">     1</i>
     <i type="int" name="MREMOVE">     5</i>
    </separator>
   </separator>
   <separator name="electronic dipolcorrection" >
    <i type="logical" name="LDIPOL"> F  </i>
    <i type="logical" name="LMONO"> F  </i>
    <i type="int" name="IDIPOL">     0</i>
    <i name="EPSILON">      1.00000000</i>
    <v name="DIPOL">   -100.00000000   -100.00000000   -100.00000000</v>
    <i name="EFIELD">      0.00000000</i>
   </separator>
  </separator>
  <separator name="grids" >
   <i type="int" name="NGX">   336</i>
   <i type="int" name="NGY">   336</i>
   <i type="int" name="NGZ">   150</i>
   <i type="int" name="NGXF">   500</i>
   <i type="int" name="NGYF">   500</i>
   <i type="int" name="NGZF">   224</i>
   <i type="logical" name="ADDGRID"> F  </i>
  </separator>
  <separator name="ionic" >
   <i type="int" name="NSW">     0</i>
   <i type="int" name="IBRION">    -1</i>
   <i type="int" name="MDALGO">     0</i>
   <i type="int" name="ISIF">     2</i>
   <i name="PSTRESS">      0.00000000</i>
   <i name="EDIFFG">     -0.01000000</i>
   <i type="int" name="NFREE">     0</i>
   <i name="POTIM">      0.30000000</i>
   <i name="SMASS">     -3.00000000</i>
   <i name="SCALEE">      1.00000000</i>
  </separator>
  <separator name="ionic md" >
   <i name="TEBEG">      0.00010000</i>
   <i name="TEEND">      0.00010000</i>
   <i type="int" name="NBLOCK">     1</i>
   <i type="int" name="KBLOCK">     1</i>
   <i type="int" name="NPACO">   256</i>
   <i name="APACO">     16.00000000</i>
  </separator>
  <separator name="symmetry" >
   <i type="int" name="ISYM">     2</i>
   <i name="SYMPREC">      0.00001000</i>
  </separator>
  <separator name="dos" >
   <i type="int" name="LORBIT">     0</i>
   <v name="RWIGS">     -1.00000000     -1.00000000     -1.00000000     -1.00000000</v>
   <i type="int" name="NEDOS">   301</i>
   <i name="EMIN">     10.00000000</i>
   <i name="EMAX">    -10.00000000</i>
   <i name="EFERMI">      0.00000000</i>
  </separator>
  <separator name="writing" >
   <i type="int" name="NWRITE">     0</i>
   <i type="logical" name="LWAVE"> F  </i>
   <i type="logical" name="LDOWNSAMPLE"> F  </i>
   <i type="logical" name="LCHARG"> F  </i>
   <i type="logical" name="LPARD"> F  </i>
   <i type="logical" name="LVTOT"> F  </i>
   <i type="logical" name="LVHAR"> F  </i>
   <i type="logical" name="LELF"> F  </i>
   <i type="logical" name="LOPTICS"> F  </i>
   <v name="STM">      0.00000000      0.00000000      0.00000000      0.00000000      0.00000000      0.00000000      0.00000000</v>
  </separator>
  <separator name="performance" >
   <i type="int" name="NPAR">    16</i>
   <i type="int" name="NSIM">     4</i>
   <i type="int" name="NBLK">    -1</i>
   <i type="logical" name="LPLANE"> T  </i>
   <i type="logical" name="LSCALAPACK"> T  </i>
   <i type="logical" name="LSCAAWARE"> F  </i>
   <i type="logical" name="LSCALU"> F  </i>
   <i type="logical" name="LASYNC"> F  </i>
   <i type="logical" name="LORBITALREAL"> F  </i>
  </separator>
  <separator name="miscellaneous" >
   <i type="int" name="IDIOT">     3</i>
   <i type="int" name="ISPECIAL">     0</i>
   <i type="logical" name="LMUSIC"> F  </i>
   <v name="POMASS">     16.00000000     14.00100000      1.00000000     12.01100000</v>
   <v name="DARWINR">      0.00000000      0.00000000      0.00000000      0.00000000</v>
   <v name="DARWINV">      1.00000000      1.00000000      1.00000000      1.00000000</v>
   <i type="logical" name="LCORR"> T  </i>
  </separator>
  <i type="logical" name="GGA_COMPAT"> T  </i>
  <i type="logical" name="LBERRY"> F  </i>
  <i type="int" name="ICORELEVEL">     0</i>
  <i type="logical" name="LDAU"> F  </i>
  <i type="int" name="I_CONSTRAINED_M">     0</i>
  <separator name="electronic exchange-correlation" >
   <i type="string" name="GGA">PE</i>
   <i type="int" name="VOSKOWN">     0</i>
   <i type="logical" name="LHFCALC"> F  </i>
   <i type="string" name="PRECFOCK"></i>
   <i type="logical" name="LSYMGRAD"> F  </i>
   <i type="logical" name="LHFONE"> F  </i>
   <i type="logical" name="LRHFCALC"> F  </i>
   <i type="logical" name="LTHOMAS"> F  </i>
   <i type="logical" name="LMODELHF"> F  </i>
   <i name="ENCUT4O">     -1.00000000</i>
   <i type="int" name="EXXOEP">     0</i>
   <i type="int" name="FOURORBIT">     0</i>
   <i name="AEXX">      0.00000000</i>
   <i name="HFALPHA">      0.00000000</i>
   <i name="MCALPHA">      0.00000000</i>
   <i name="ALDAX">      1.00000000</i>
   <i name="AGGAX">      1.00000000</i>
   <i name="ALDAC">      1.00000000</i>
   <i name="AGGAC">      1.00000000</i>
   <i type="int" name="NKREDX">     1</i>
   <i type="int" name="NKREDY">     1</i>
   <i type="int" name="NKREDZ">     1</i>
   <i type="logical" name="SHIFTRED"> F  </i>
   <i type="logical" name="ODDONLY"> F  </i>
   <i type="logical" name="EVENONLY"> F  </i>
   <i type="int" name="LMAXFOCK">     0</i>
   <i type="int" name="NMAXFOCKAE">     0</i>
   <i type="logical" name="LFOCKAEDFT"> F  </i>
   <i name="HFSCREEN">      0.00000000</i>
   <i name="HFSCREENC">      0.00000000</i>
   <i type="int" name="NBANDSGWLOW">     0</i>
  </separator>
  <separator name="vdW DFT" >
   <i type="logical" name="LUSE_VDW"> F  </i>
   <i name="Zab_VDW">     -0.84910000</i>
   <i name="PARAM1">      0.12340000</i>
   <i name="PARAM2">      1.00000000</i>
   <i name="PARAM3">      0.00000000</i>
  </separator>
  <separator name="model GW" >
   <i type="int" name="MODEL_GW">     0</i>
   <i name="MODEL_EPS0">    109.65981875</i>
   <i name="MODEL_ALPHA">      1.00000000</i>
  </separator>
  <separator name="linear response parameters" >
   <i type="logical" name="LEPSILON"> F  </i>
   <i type="logical" name="LRPA"> F  </i>
   <i type="logical" name="LNABLA"> F  </i>
   <i type="logical" name="LVEL"> F  </i>
   <i type="int" name="KINTER">     0</i>
   <i name="CSHIFT">      0.10000000</i>
   <i name="OMEGAMAX">     -1.00000000</i>
   <i name="DEG_THRESHOLD">      0.00200000</i>
   <i name="RTIME">     -0.10000000</i>
   <i name="WPLASMAI">      0.00000000</i>
   <v name="DFIELD">      0.00000000      0.00000000      0.00000000</v>
   <v name="WPLASMA">      0.00000000      0.00000000      0.00000000      0.00000000      0.00000000      0.00000000      0.00000000      0.00000000      0.00000000</v>
  </separator>
  <separator name="orbital magnetization" >
   <i type="logical" name="NUCIND"> F  </i>
   <v name="MAGPOS">      0.00000000      0.00000000      0.00000000</v>
   <i type="logical" name="LNICSALL"> T  </i>
   <i type="logical" name="ORBITALMAG"> F  </i>
   <i type="logical" name="LMAGBLOCH"> F  </i>
   <i type="logical" name="LCHIMAG"> F  </i>
   <i type="logical" name="LGAUGE"> T  </i>
   <i type="int" name="MAGATOM">     0</i>
   <v name="MAGDIPOL">      0.00000000      0.00000000      0.00000000</v>
   <v name="AVECCONST">      0.00000000      0.00000000      0.00000000</v>
  </separator>
  <separator name="response functions" >
   <i type="logical" name="LADDER"> F  </i>
   <i type="logical" name="LRPAFORCE"> F  </i>
   <i type="logical" name="LFXC"> F  </i>
   <i type="logical" name="LHARTREE"> T  </i>
   <i type="int" name="IBSE">     0</i>
   <v type="int" name="KPOINT">    -1     0     0     0</v>
   <i type="logical" name="LTCTE"> F  </i>
   <i type="logical" name="LTETE"> F  </i>
   <i type="logical" name="LTRIPLET"> F  </i>
   <i type="logical" name="LFXCEPS"> F  </i>
   <i type="logical" name="LFXHEG"> F  </i>
   <i type="int" name="NATURALO">     2</i>
   <i type="logical" name="L2ORDER"> F  </i>
   <i type="logical" name="LMP2LT"> F  </i>
   <i type="logical" name="LUSEW"> F  </i>
   <i name="ENCUTGW">     -2.00000000</i>
   <i name="ENCUTGWSOFT">     -2.00000000</i>
   <i name="ENCUTLF">     -1.00000000</i>
   <i type="int" name="LMAXMP2">    -1</i>
   <i name="SCISSOR">      0.00000000</i>
   <i type="int" name="NOMEGA">     0</i>
   <i type="int" name="NOMEGAR">     0</i>
   <i type="int" name="NBANDSGW">    -1</i>
   <i type="int" name="NBANDSO">    -1</i>
   <i type="int" name="NBANDSV">    -1</i>
   <i type="int" name="NELM">   200</i>
   <i type="int" name="NELMHF">     1</i>
   <i type="int" name="DIM">     3</i>
   <i type="int" name="ANTIRES">     0</i>
   <i name="OMEGAMAX">    -30.00000000</i>
   <i name="OMEGAMIN">    -30.00000000</i>
   <i name="OMEGATL">   -200.00000000</i>
   <i type="int" name="OMEGAGRID">   140</i>
   <i name="CSHIFT">     -0.10000000</i>
   <i type="logical" name="SELFENERGY"> F  </i>
   <i type="logical" name="LSPECTRAL"> F  </i>
   <i type="logical" name="LSPECTRALGW"> F  </i>
   <i type="logical" name="LSINGLES"> F  </i>
   <i type="logical" name="LFERMIGW"> F  </i>
   <i type="logical" name="ODDONLYGW"> F  </i>
   <i type="logical" name="EVENONLYGW"> F  </i>
   <i type="int" name="NKREDLFX">     1</i>
   <i type="int" name="NKREDLFY">     1</i>
   <i type="int" name="NKREDLFZ">     1</i>
   <i type="int" name="MAXMEM">  2800</i>
   <i type="int" name="TELESCOPE">     0</i>
   <i type="int" name="TAUPAR">     1</i>
   <i type="int" name="OMEGAPAR">    -1</i>
   <i name="LAMBDA">      1.00000000</i>
  </separator>
  <separator name="External order field" >
   <i name="OFIELD_KAPPA">      0.00000000</i>
   <v name="OFIELD_K">      0.00000000      0.00000000      0.00000000</v>
   <i name="OFIELD_Q6_NEAR">      0.00000000</i>
   <i name="OFIELD_Q6_FAR">      0.00000000</i>
   <i name="OFIELD_A">      0.00000000</i>
  </separator>
  <separator name="solvation model" >
   <i type="logical" name="LSOL"> F  </i>
  </separator>
 </parameters>
 <atominfo>
  <atoms>     192 </atoms>
  <types>       4 </types>
  <array name="atoms" >
   <dimension dim="1">ion</dimension>
   <field type="string">element</field>
   <field type="int">atomtype</field>
   <set>
    <rc><c>O </c><c>   1</c></rc>
    <rc><c>O </c><c>   1</c></rc>
    <rc><c>O </c><c>   1</c></rc>
    <rc><c>O </c><c>   1</c></rc>
    <rc><c>O </c><c>   1</c></rc>
    <rc><c>O </c><c>   1</c></rc>
    <rc><c>O </c><c>   1</c></rc>
    <rc><c>O </c><c>   1</c></rc>
    <rc><c>O </c><c>   1</c></rc>
    <rc><c>O </c><c>   1</c></rc>
    <rc><c>O </c><c>   1</c></rc>
    <rc><c>O </c><c>   1</c></rc>
    <rc><c>O </c><c>   1</c></rc>
    <rc><c>O </c><c>   1</c></rc>
    <rc><c>O </c><c>   1</c></rc>
    <rc><c>O </c><c>   1</c></rc>
    <rc><c>O </c><c>   1</c></rc>
    <rc><c>O </c><c>   1</c></rc>
    <rc><c>O </c><c>   1</c></rc>
    <rc><c>O </c><c>   1</c></rc>
    <rc><c>O </c><c>   1</c></rc>
    <rc><c>O </c><c>   1</c></rc>
    <rc><c>O </c><c>   1</c></rc>
    <rc><c>O </c><c>   1</c></rc>
    <rc><c>N </c><c>   2</c></rc>
    <rc><c>N </c><c>   2</c></rc>
    <rc><c>N </c><c>   2</c></rc>
    <rc><c>N </c><c>   2</c></rc>
    <rc><c>N </c><c>   2</c></rc>
    <rc><c>N </c><c>   2</c></rc>
    <rc><c>N </c><c>   2</c></rc>
    <rc><c>N </c><c>   2</c></rc>
    <rc><c>N </c><c>   2</c></rc>
    <rc><c>N </c><c>   2</c></rc>
    <rc><c>N </c><c>   2</c></rc>
    <rc><c>N </c><c>   2</c></rc>
    <rc><c>N </c><c>   2</c></rc>
    <rc><c>N </c><c>   2</c></rc>
    <rc><c>N </c><c>   2</c></rc>
    <rc><c>N </c><c>   2</c></rc>
    <rc><c>N </c><c>   2</c></rc>
    <rc><c>N </c><c>   2</c></rc>
    <rc><c>N </c><c>   2</c></rc>
    <rc><c>N </c><c>   2</c></rc>
    <rc><c>N </c><c>   2</c></rc>
    <rc><c>N </c><c>   2</c></rc>
    <rc><c>N </c><c>   2</c></rc>
    <rc><c>N </c><c>   2</c></rc>
    <rc><c>N </c><c>   2</c></rc>
    <rc><c>N </c><c>   2</c></rc>
    <rc><c>N </c><c>   2</c></rc>
    <rc><c>N </c><c>   2</c></rc>
    <rc><c>N </c><c>   2</c></rc>
    <rc><c>N </c><c>   2</c></rc>
    <rc><c>N </c><c>   2</c></rc>
    <rc><c>N </c><c>   2</c></rc>
    <rc><c>N </c><c>   2</c></rc>
    <rc><c>N </c><c>   2</c></rc>
    <rc><c>N </c><c>   2</c></rc>
    <rc><c>N </c><c>   2</c></rc>
    <rc><c>N </c><c>   2</c></rc>
    <rc><c>N </c><c>   2</c></rc>
    <rc><c>N </c><c>   2</c></rc>
    <rc><c>N </c><c>   2</c></rc>
    <rc><c>N </c><c>   2</c></rc>
    <rc><c>N </c><c>   2</c></rc>
    <rc><c>N </c><c>   2</c></rc>
    <rc><c>N </c><c>   2</c></rc>
    <rc><c>N </c><c>   2</c></rc>
    <rc><c>N </c><c>   2</c></rc>
    <rc><c>N </c><c>   2</c></rc>
    <rc><c>N </c><c>   2</c></rc>
    <rc><c>H </c><c>   3</c></rc>
    <rc><c>H </c><c>   3</c></rc>
    <rc><c>H </c><c>   3</c></rc>
    <rc><c>H </c><c>   3</c></rc>
    <rc><c>H </c><c>   3</c></rc>
    <rc><c>H </c><c>   3</c></rc>
    <rc><c>H </c><c>   3</c></rc>
    <rc><c>H </c><c>   3</c></rc>
    <rc><c>H </c><c>   3</c></rc>
    <rc><c>H </c><c>   3</c></rc>
    <rc><c>H </c><c>   3</c></rc>
    <rc><c>H </c><c>   3</c></rc>
    <rc><c>H </c><c>   3</c></rc>
    <rc><c>H </c><c>   3</c></rc>
    <rc><c>H </c><c>   3</c></rc>
    <rc><c>H </c><c>   3</c></rc>
    <rc><c>H </c><c>   3</c></rc>
    <rc><c>H </c><c>   3</c></rc>
    <rc><c>H </c><c>   3</c></rc>
    <rc><c>H </c><c>   3</c></rc>
    <rc><c>H </c><c>   3</c></rc>
    <rc><c>H </c><c>   3</c></rc>
    <rc><c>H </c><c>   3</c></rc>
    <rc><c>H </c><c>   3</c></rc>
    <rc><c>H </c><c>   3</c></rc>
    <rc><c>H </c><c>   3</c></rc>
    <rc><c>H </c><c>   3</c></rc>
    <rc><c>H </c><c>   3</c></rc>
    <rc><c>H </c><c>   3</c></rc>
    <rc><c>H </c><c>   3</c></rc>
    <rc><c>H </c><c>   3</c></rc>
    <rc><c>H </c><c>   3</c></rc>
    <rc><c>H </c><c>   3</c></rc>
    <rc><c>H </c><c>   3</c></rc>
    <rc><c>H </c><c>   3</c></rc>
    <rc><c>H </c><c>   3</c></rc>
    <rc><c>C </c><c>   4</c></rc>
    <rc><c>C </c><c>   4</c></rc>
    <rc><c>C </c><c>   4</c></rc>
    <rc><c>C </c><c>   4</c></rc>
    <rc><c>C </c><c>   4</c></rc>
    <rc><c>C </c><c>   4</c></rc>
    <rc><c>C </c><c>   4</c></rc>
    <rc><c>C </c><c>   4</c></rc>
    <rc><c>C </c><c>   4</c></rc>
    <rc><c>C </c><c>   4</c></rc>
    <rc><c>C </c><c>   4</c></rc>
    <rc><c>C </c><c>   4</c></rc>
    <rc><c>C </c><c>   4</c></rc>
    <rc><c>C </c><c>   4</c></rc>
    <rc><c>C </c><c>   4</c></rc>
    <rc><c>C </c><c>   4</c></rc>
    <rc><c>C </c><c>   4</c></rc>
    <rc><c>C </c><c>   4</c></rc>
    <rc><c>C </c><c>   4</c></rc>
    <rc><c>C </c><c>   4</c></rc>
    <rc><c>C </c><c>   4</c></rc>
    <rc><c>C </c><c>   4</c></rc>
    <rc><c>C </c><c>   4</c></rc>
    <rc><c>C </c><c>   4</c></rc>
    <rc><c>C </c><c>   4</c></rc>
    <rc><c>C </c><c>   4</c></rc>
    <rc><c>C </c><c>   4</c></rc>
    <rc><c>C </c><c>   4</c></rc>
    <rc><c>C </c><c>   4</c></rc>
    <rc><c>C </c><c>   4</c></rc>
    <rc><c>C </c><c>   4</c></rc>
    <rc><c>C </c><c>   4</c></rc>
    <rc><c>C </c><c>   4</c></rc>
    <rc><c>C </c><c>   4</c></rc>
    <rc><c>C </c><c>   4</c></rc>
    <rc><c>C </c><c>   4</c></rc>
    <rc><c>C </c><c>   4</c></rc>
    <rc><c>C </c><c>   4</c></rc>
    <rc><c>C </c><c>   4</c></rc>
    <rc><c>C </c><c>   4</c></rc>
    <rc><c>C </c><c>   4</c></rc>
    <rc><c>C </c><c>   4</c></rc>
    <rc><c>C </c><c>   4</c></rc>
    <rc><c>C </c><c>   4</c></rc>
    <rc><c>C </c><c>   4</c></rc>
    <rc><c>C </c><c>   4</c></rc>
    <rc><c>C </c><c>   4</c></rc>
    <rc><c>C </c><c>   4</c></rc>
    <rc><c>C </c><c>   4</c></rc>
    <rc><c>C </c><c>   4</c></rc>
    <rc><c>C </c><c>   4</c></rc>
    <rc><c>C </c><c>   4</c></rc>
    <rc><c>C </c><c>   4</c></rc>
    <rc><c>C </c><c>   4</c></rc>
    <rc><c>C </c><c>   4</c></rc>
    <rc><c>C </c><c>   4</c></rc>
    <rc><c>C </c><c>   4</c></rc>
    <rc><c>C </c><c>   4</c></rc>
    <rc><c>C </c><c>   4</c></rc>
    <rc><c>C </c><c>   4</c></rc>
    <rc><c>C </c><c>   4</c></rc>
    <rc><c>C </c><c>   4</c></rc>
    <rc><c>C </c><c>   4</c></rc>
    <rc><c>C </c><c>   4</c></rc>
    <rc><c>C </c><c>   4</c></rc>
    <rc><c>C </c><c>   4</c></rc>
    <rc><c>C </c><c>   4</c></rc>
    <rc><c>C </c><c>   4</c></rc>
    <rc><c>C </c><c>   4</c></rc>
    <rc><c>C </c><c>   4</c></rc>
    <rc><c>C </c><c>   4</c></rc>
    <rc><c>C </c><c>   4</c></rc>
    <rc><c>C </c><c>   4</c></rc>
    <rc><c>C </c><c>   4</c></rc>
    <rc><c>C </c><c>   4</c></rc>
    <rc><c>C </c><c>   4</c></rc>
    <rc><c>C </c><c>   4</c></rc>
    <rc><c>C </c><c>   4</c></rc>
    <rc><c>C </c><c>   4</c></rc>
    <rc><c>C </c><c>   4</c></rc>
    <rc><c>C </c><c>   4</c></rc>
    <rc><c>C </c><c>   4</c></rc>
    <rc><c>C </c><c>   4</c></rc>
    <rc><c>C </c><c>   4</c></rc>
   </set>
  </array>
  <array name="atomtypes" >
   <dimension dim="1">type</dimension>
   <field type="int">atomspertype</field>
   <field type="string">element</field>
   <field>mass</field>
   <field>valence</field>
   <field type="string">pseudopotential</field>
   <set>
    <rc><c>  24</c><c>O </c><c>     16.00000000</c><c>      6.00000000</c><c>  PAW_PBE O 08Apr2002                   </c></rc>
    <rc><c>  48</c><c>N </c><c>     14.00100000</c><c>      5.00000000</c><c>  PAW_PBE N 08Apr2002                   </c></rc>
    <rc><c>  36</c><c>H </c><c>      1.00000000</c><c>      1.00000000</c><c>  PAW_PBE H 15Jun2001                   </c></rc>
    <rc><c>  84</c><c>C </c><c>     12.01100000</c><c>      4.00000000</c><c>  PAW_PBE C 08Apr2002                   </c></rc>
   </set>
  </array>
 </atominfo>
 <structure name="initialpos" >
  <crystal>
   <varray name="basis" >
    <v>      44.99961989      -0.06156824       0.00000000 </v>
    <v>     -22.55294799      39.02134395       0.00000000 </v>
    <v>       0.00000000       0.00000000      20.00000000 </v>
   </varray>
   <i name="volume">  35091.14200064 </i>
   <varray name="rec_basis" >
    <v>       0.02224000       0.01285393       0.00000000 </v>
    <v>       0.00003509       0.02564728       0.00000000 </v>
    <v>       0.00000000       0.00000000       0.05000000 </v>
   </varray>
  </crystal>
  <varray name="positions" >
   <v>       0.92896391       0.17522639       0.36749618 </v>
   <v>       0.95561357       0.17521978       0.46018022 </v>
   <v>       0.82749531       0.74959710       0.36407085 </v>
   <v>       0.82475091       0.77425801       0.45740796 </v>
   <v>       0.25062390       0.07316170       0.36415383 </v>
   <v>       0.22578700       0.04487749       0.45677795 </v>
   <v>       0.85699627       0.40286325       0.33566913 </v>
   <v>       0.81022895       0.40304210       0.36846556 </v>
   <v>       0.59768326       0.44784239       0.33423002 </v>
   <v>       0.59776602       0.40161449       0.37050973 </v>
   <v>       0.55219536       0.14376519       0.33410340 </v>
   <v>       0.59848349       0.19039845       0.36987138 </v>
   <v>       0.88093257       0.05961606       0.65178189 </v>
   <v>       0.90699579       0.11589985       0.64071537 </v>
   <v>       0.94003677       0.81707722       0.65302625 </v>
   <v>       0.88379064       0.78624642       0.64027068 </v>
   <v>       0.18335341       0.11757238       0.65364654 </v>
   <v>       0.21302496       0.09102018       0.64164302 </v>
   <v>       0.81261062       0.43471568       0.66405472 </v>
   <v>       0.77992097       0.39569073       0.58968187 </v>
   <v>       0.56339715       0.37416794       0.66544511 </v>
   <v>       0.60375455       0.38196398       0.59312344 </v>
   <v>       0.62497929       0.18160935       0.66556274 </v>
   <v>       0.61886782       0.21563144       0.59439151 </v>
   <v>       0.01688579       0.03403478       0.51880348 </v>
   <v>       0.96603020       0.97840973       0.52000805 </v>
   <v>       0.02167491       0.98333227       0.51974362 </v>
   <v>       0.07022184       0.03781886       0.52389899 </v>
   <v>       0.97218551       0.93002416       0.52498138 </v>
   <v>       0.96229042       0.02785562       0.52436164 </v>
   <v>       0.82711336       0.23751567       0.47191082 </v>
   <v>       0.77511518       0.23660935       0.50119770 </v>
   <v>       0.77524249       0.18373321       0.49020290 </v>
   <v>       0.82919531       0.18772920       0.46946607 </v>
   <v>       0.72515473       0.18648226       0.51725739 </v>
   <v>       0.82401152       0.28784718       0.47485894 </v>
   <v>       0.76301909       0.58505841       0.47153596 </v>
   <v>       0.76302335       0.53362738       0.50094836 </v>
   <v>       0.81647374       0.58636708       0.49051300 </v>
   <v>       0.81328302       0.63663612       0.46888152 </v>
   <v>       0.81261264       0.53306588       0.51782839 </v>
   <v>       0.71214438       0.53181416       0.47443594 </v>
   <v>       0.41586580       0.17292523       0.47116918 </v>
   <v>       0.46721006       0.22477794       0.50031196 </v>
   <v>       0.41411563       0.22472735       0.49051902 </v>
   <v>       0.36397156       0.17097656       0.46974392 </v>
   <v>       0.46725315       0.27463057       0.51754435 </v>
   <v>       0.46939017       0.17598036       0.47369984 </v>
   <v>       0.92244936       0.10111642       0.43923062 </v>
   <v>       0.92966964       0.16744362       0.42647590 </v>
   <v>       0.89973470       0.81669173       0.43891532 </v>
   <v>       0.83385614       0.75718369       0.42377019 </v>
   <v>       0.18382250       0.07799187       0.43951773 </v>
   <v>       0.24296490       0.07138084       0.42392080 </v>
   <v>       0.85733796       0.46113221       0.45112811 </v>
   <v>       0.83540039       0.39944280       0.37772644 </v>
   <v>       0.53869502       0.39140166       0.45018107 </v>
   <v>       0.60103098       0.43033539       0.37783840 </v>
   <v>       0.60843582       0.14142708       0.44935270 </v>
   <v>       0.56974922       0.16483441       0.37745018 </v>
   <v>       0.85760728       0.10246365       0.53298999 </v>
   <v>       0.89817684       0.08666403       0.62065102 </v>
   <v>       0.89812856       0.75058074       0.53328136 </v>
   <v>       0.91317388       0.80694288       0.62097524 </v>
   <v>       0.25011704       0.14152204       0.53609754 </v>
   <v>       0.19302128       0.10043310       0.62186530 </v>
   <v>       0.84320575       0.39501650       0.56413626 </v>
   <v>       0.80423938       0.42386271       0.60644187 </v>
   <v>       0.60404946       0.44488955       0.56349361 </v>
   <v>       0.57503532       0.37712243       0.60836903 </v>
   <v>       0.55523480       0.15353928       0.56309261 </v>
   <v>       0.62280757       0.19115363       0.60880758 </v>
   <v>       0.88147223       0.18511470       0.43139141 </v>
   <v>       0.95236510       0.08628917       0.38682135 </v>
   <v>       0.97704459       0.05289218       0.43229472 </v>
   <v>       0.81634995       0.69139122       0.42926801 </v>
   <v>       0.91461788       0.86145813       0.38655324 </v>
   <v>       0.94764955       0.91957914       0.43233267 </v>
   <v>       0.30891989       0.11938699       0.43015844 </v>
   <v>       0.13911376       0.04866279       0.38626802 </v>
   <v>       0.08066086       0.02350292       0.43153289 </v>
   <v>       0.83382106       0.34127490       0.40520768 </v>
   <v>       0.86727882       0.50525771       0.40114706 </v>
   <v>       0.83614183       0.53724178       0.42548195 </v>
   <v>       0.65913986       0.48738494       0.40480029 </v>
   <v>       0.49491378       0.35658632       0.39969595 </v>
   <v>       0.46288065       0.29382995       0.42522709 </v>
   <v>       0.51314607       0.16662462       0.40443424 </v>
   <v>       0.64321853       0.13269266       0.39841195 </v>
   <v>       0.70618661       0.16347816       0.42435635 </v>
   <v>       0.92948923       0.05147664       0.59181735 </v>
   <v>       0.81418734       0.10303466       0.56439357 </v>
   <v>       0.80067275       0.14885242       0.53884055 </v>
   <v>       0.94832701       0.87344120       0.59233397 </v>
   <v>       0.89743600       0.70671578       0.56552156 </v>
   <v>       0.85157700       0.64718578       0.53983543 </v>
   <v>       0.12658498       0.06973798       0.59212622 </v>
   <v>       0.29422537       0.18431871       0.56933750 </v>
   <v>       0.35375224       0.19834374       0.54192337 </v>
   <v>       0.80806770       0.48331979       0.58310944 </v>
   <v>       0.84015745       0.35502559       0.61973120 </v>
   <v>       0.82125354       0.29802599       0.57553629 </v>
   <v>       0.51593755       0.32088192       0.58455338 </v>
   <v>       0.64373492       0.48260308       0.61878637 </v>
   <v>       0.70134071       0.51988380       0.57535579 </v>
   <v>       0.67892386       0.18837525       0.58443267 </v>
   <v>       0.51792227       0.15614319       0.61845265 </v>
   <v>       0.48067898       0.17643994       0.57483089 </v>
   <v>       0.03478834       0.01744903       0.51916418 </v>
   <v>       0.98270060       0.01292368       0.51946791 </v>
   <v>       0.98711664       0.96539226       0.51998037 </v>
   <v>       0.80935495       0.20327073       0.47820418 </v>
   <v>       0.80849237       0.25264727       0.48418023 </v>
   <v>       0.75981914       0.20219027       0.50103703 </v>
   <v>       0.79731188       0.60123746       0.47802467 </v>
   <v>       0.74740346       0.55127803       0.48386492 </v>
   <v>       0.79750655       0.55245971       0.50125996 </v>
   <v>       0.39944353       0.19070020       0.47813480 </v>
   <v>       0.44972088       0.19147796       0.48322732 </v>
   <v>       0.44811708       0.24007454       0.50091044 </v>
   <v>       0.89621900       0.14819789       0.46112428 </v>
   <v>       0.87475455       0.16186313       0.45954705 </v>
   <v>       0.94311813       0.06591050       0.48792272 </v>
   <v>       0.94012410       0.08470601       0.43499299 </v>
   <v>       0.96247765       0.04805704       0.47931400 </v>
   <v>       0.85295046       0.74318540       0.45952730 </v>
   <v>       0.83937495       0.70805784       0.45807512 </v>
   <v>       0.93450195       0.87264490       0.48804898 </v>
   <v>       0.91602896       0.85081034       0.43483609 </v>
   <v>       0.95228386       0.90990776       0.47960450 </v>
   <v>       0.25714982       0.10417713       0.46075529 </v>
   <v>       0.29237002       0.12562374       0.45953104 </v>
   <v>       0.12765489       0.05708261       0.48771836 </v>
   <v>       0.14965739       0.06045820       0.43481485 </v>
   <v>       0.09034549       0.03784455       0.47879305 </v>
   <v>       0.83726928       0.49856642       0.49091336 </v>
   <v>       0.85501127       0.48940055       0.44523406 </v>
   <v>       0.84134041       0.43963018       0.50216560 </v>
   <v>       0.84158333       0.40693957       0.50355799 </v>
   <v>       0.83902884       0.38817407       0.44524709 </v>
   <v>       0.83671745       0.35643429       0.44978682 </v>
   <v>       0.82954170       0.52587363       0.47599009 </v>
   <v>       0.50120052       0.33398073       0.49081656 </v>
   <v>       0.51052567       0.36060692       0.44437930 </v>
   <v>       0.55989567       0.39744780       0.50204701 </v>
   <v>       0.59257744       0.43055871       0.50322646 </v>
   <v>       0.61180342       0.44609551       0.44491665 </v>
   <v>       0.64358463       0.47564727       0.44926715 </v>
   <v>       0.47420622       0.29872402       0.47579930 </v>
   <v>       0.66583041       0.16109828       0.49006989 </v>
   <v>       0.63920978       0.14405195       0.44340044 </v>
   <v>       0.60241666       0.15634884       0.50159473 </v>
   <v>       0.56947287       0.15618875       0.50281150 </v>
   <v>       0.55406313       0.16004870       0.44452012 </v>
   <v>       0.52478724       0.16269607       0.44888990 </v>
   <v>       0.70115080       0.16954461       0.47510526 </v>
   <v>       0.84447791       0.14582547       0.49762403 </v>
   <v>       0.83735361       0.11619708       0.53362186 </v>
   <v>       0.88702078       0.11815953       0.49809486 </v>
   <v>       0.90788604       0.10118055       0.49766105 </v>
   <v>       0.91087985       0.08403995       0.55400695 </v>
   <v>       0.92766708       0.06549557       0.54907054 </v>
   <v>       0.82227670       0.16075899       0.50319308 </v>
   <v>       0.85511716       0.69394530       0.49722355 </v>
   <v>       0.88446625       0.71659388       0.53399227 </v>
   <v>       0.88263835       0.76417510       0.49755443 </v>
   <v>       0.89943651       0.80203529       0.49744056 </v>
   <v>       0.91617821       0.82220866       0.55410268 </v>
   <v>       0.93462196       0.85758579       0.54932467 </v>
   <v>       0.84003754       0.65678366       0.50322372 </v>
   <v>       0.30670551       0.15522588       0.49944835 </v>
   <v>       0.28418632       0.16172140       0.53703694 </v>
   <v>       0.23627997       0.11276312       0.49926632 </v>
   <v>       0.19833761       0.09201441       0.49838373 </v>
   <v>       0.17796556       0.08854954       0.55471857 </v>
   <v>       0.14257406       0.07193193       0.54932876 </v>
   <v>       0.34395068       0.17732800       0.50500105 </v>
   <v>       0.82415577       0.44771767       0.55164488 </v>
   <v>       0.82241762       0.47739041       0.54679543 </v>
   <v>       0.83595931       0.34321618       0.51360174 </v>
   <v>       0.84005640       0.36409212       0.56902531 </v>
   <v>       0.82703524       0.30753959       0.52361947 </v>
   <v>       0.55154220       0.37253549       0.55240389 </v>
   <v>       0.52199898       0.34088232       0.54752068 </v>
   <v>       0.65635380       0.48890433       0.51294060 </v>
   <v>       0.63501296       0.47278858       0.56824589 </v>
   <v>       0.69210239       0.51570503       0.52319965 </v>
   <v>       0.62730071       0.17256483       0.55223817 </v>
   <v>       0.65892000       0.17466087       0.54718933 </v>
   <v>       0.51168208       0.16246605       0.51257365 </v>
   <v>       0.52761738       0.15703613       0.56788206 </v>
   <v>       0.48510411       0.17166035       0.52265890 </v>
  </varray>
 </structure>
 <calculation>
  <scstep>
   <time name="dav"> 1799.66 1816.00</time>
   <time name="total"> 1800.19 1816.54</time>
   <energy>
    <i name="alphaZ">     73.31307420 </i>
    <i name="ewald"> 124209.91125074 </i>
    <i name="hartreedc">-153470.20504386 </i>
    <i name="XCdc">   2898.43065007 </i>
    <i name="pawpsdc">  72185.02116169 </i>
    <i name="pawaedc"> -72355.09245846 </i>
    <i name="eentropy">     -0.00000000 </i>
    <i name="bandstr"> -10824.50214387 </i>
    <i name="atom">  35884.20610046 </i>
    <i name="e_fr_energy">  -1398.91740903 </i>
    <i name="e_wo_entrp">  -1398.91740903 </i>
    <i name="e_0_energy">  -1398.91740903 </i>
   </energy>
  </scstep>
  <scstep>
   <time name="dav"> 2002.61 2021.06</time>
   <time name="total"> 2002.64 2021.08</time>
   <energy>
    <i name="e_fr_energy">  -1399.36526002 </i>
    <i name="e_wo_entrp">  -1399.36526002 </i>
    <i name="e_0_energy">  -1399.36526002 </i>
   </energy>
  </scstep>
  <scstep>
   <time name="dav"> 2305.85 2326.39</time>
   <time name="total"> 2305.88 2326.42</time>
   <energy>
    <i name="e_fr_energy">  -1399.37742220 </i>
    <i name="e_wo_entrp">  -1399.37742220 </i>
    <i name="e_0_energy">  -1399.37742220 </i>
   </energy>
  </scstep>
  <scstep>
   <time name="dav"> 1953.65 1971.79</time>
   <time name="total"> 1953.67 1971.81</time>
   <energy>
    <i name="e_fr_energy">  -1399.37758584 </i>
    <i name="e_wo_entrp">  -1399.37758584 </i>
    <i name="e_0_energy">  -1399.37758584 </i>
   </energy>
  </scstep>
  <scstep>
   <time name="dav"> 1705.98 1721.29</time>
   <time name="total"> 1706.00 1721.31</time>
   <energy>
    <i name="alphaZ">     73.31307420 </i>
    <i name="ewald"> 124209.91125074 </i>
    <i name="hartreedc">-153470.20504386 </i>
    <i name="XCdc">   2898.43065007 </i>
    <i name="pawpsdc">  72185.02116169 </i>
    <i name="pawaedc"> -72355.09245846 </i>
    <i name="eentropy">     -0.00000000 </i>
    <i name="bandstr"> -10824.96232758 </i>
    <i name="atom">  35884.20610046 </i>
    <i name="e_fr_energy">  -1399.37759275 </i>
    <i name="e_wo_entrp">  -1399.37759275 </i>
    <i name="e_0_energy">  -1399.37759275 </i>
   </energy>
  </scstep>
  <structure>
   <crystal>
    <varray name="basis" >
     <v>      44.99961989      -0.06156824       0.00000000 </v>
     <v>     -22.55294799      39.02134395       0.00000000 </v>
     <v>       0.00000000       0.00000000      20.00000000 </v>
    </varray>
    <i name="volume">  35091.14200064 </i>
    <varray name="rec_basis" >
     <v>       0.02224000       0.01285393       0.00000000 </v>
     <v>       0.00003509       0.02564728       0.00000000 </v>
     <v>       0.00000000       0.00000000       0.05000000 </v>
    </varray>
   </crystal>
   <varray name="positions" >
    <v>       0.92896391       0.17522639       0.36749618 </v>
    <v>       0.95561357       0.17521978       0.46018022 </v>
    <v>       0.82749531       0.74959710       0.36407085 </v>
    <v>       0.82475091       0.77425801       0.45740796 </v>
    <v>       0.25062390       0.07316170       0.36415383 </v>
    <v>       0.22578700       0.04487749       0.45677795 </v>
    <v>       0.85699627       0.40286325       0.33566913 </v>
    <v>       0.81022895       0.40304210       0.36846556 </v>
    <v>       0.59768326       0.44784239       0.33423002 </v>
    <v>       0.59776602       0.40161449       0.37050973 </v>
    <v>       0.55219536       0.14376519       0.33410340 </v>
    <v>       0.59848349       0.19039845       0.36987138 </v>
    <v>       0.88093257       0.05961606       0.65178189 </v>
    <v>       0.90699579       0.11589985       0.64071537 </v>
    <v>       0.94003677       0.81707722       0.65302625 </v>
    <v>       0.88379064       0.78624642       0.64027068 </v>
    <v>       0.18335341       0.11757238       0.65364654 </v>
    <v>       0.21302496       0.09102018       0.64164302 </v>
    <v>       0.81261062       0.43471568       0.66405472 </v>
    <v>       0.77992097       0.39569073       0.58968187 </v>
    <v>       0.56339715       0.37416794       0.66544511 </v>
    <v>       0.60375455       0.38196398       0.59312344 </v>
    <v>       0.62497929       0.18160935       0.66556274 </v>
    <v>       0.61886782       0.21563144       0.59439151 </v>
    <v>       0.01688579       0.03403478       0.51880348 </v>
    <v>       0.96603020       0.97840973       0.52000805 </v>
    <v>       0.02167491       0.98333227       0.51974362 </v>
    <v>       0.07022184       0.03781886       0.52389899 </v>
    <v>       0.97218551       0.93002416       0.52498138 </v>
    <v>       0.96229042       0.02785562       0.52436164 </v>
    <v>       0.82711336       0.23751567       0.47191082 </v>
    <v>       0.77511518       0.23660935       0.50119770 </v>
    <v>       0.77524249       0.18373321       0.49020290 </v>
    <v>       0.82919531       0.18772920       0.46946607 </v>
    <v>       0.72515473       0.18648226       0.51725739 </v>
    <v>       0.82401152       0.28784718       0.47485894 </v>
    <v>       0.76301909       0.58505841       0.47153596 </v>
    <v>       0.76302335       0.53362738       0.50094836 </v>
    <v>       0.81647374       0.58636708       0.49051300 </v>
    <v>       0.81328302       0.63663612       0.46888152 </v>
    <v>       0.81261264       0.53306588       0.51782839 </v>
    <v>       0.71214438       0.53181416       0.47443594 </v>
    <v>       0.41586580       0.17292523       0.47116918 </v>
    <v>       0.46721006       0.22477794       0.50031196 </v>
    <v>       0.41411563       0.22472735       0.49051902 </v>
    <v>       0.36397156       0.17097656       0.46974392 </v>
    <v>       0.46725315       0.27463057       0.51754435 </v>
    <v>       0.46939017       0.17598036       0.47369984 </v>
    <v>       0.92244936       0.10111642       0.43923062 </v>
    <v>       0.92966964       0.16744362       0.42647590 </v>
    <v>       0.89973470       0.81669173       0.43891532 </v>
    <v>       0.83385614       0.75718369       0.42377019 </v>
    <v>       0.18382250       0.07799187       0.43951773 </v>
    <v>       0.24296490       0.07138084       0.42392080 </v>
    <v>       0.85733796       0.46113221       0.45112811 </v>
    <v>       0.83540039       0.39944280       0.37772644 </v>
    <v>       0.53869502       0.39140166       0.45018107 </v>
    <v>       0.60103098       0.43033539       0.37783840 </v>
    <v>       0.60843582       0.14142708       0.44935270 </v>
    <v>       0.56974922       0.16483441       0.37745018 </v>
    <v>       0.85760728       0.10246365       0.53298999 </v>
    <v>       0.89817684       0.08666403       0.62065102 </v>
    <v>       0.89812856       0.75058074       0.53328136 </v>
    <v>       0.91317388       0.80694288       0.62097524 </v>
    <v>       0.25011704       0.14152204       0.53609754 </v>
    <v>       0.19302128       0.10043310       0.62186530 </v>
    <v>       0.84320575       0.39501650       0.56413626 </v>
    <v>       0.80423938       0.42386271       0.60644187 </v>
    <v>       0.60404946       0.44488955       0.56349361 </v>
    <v>       0.57503532       0.37712243       0.60836903 </v>
    <v>       0.55523480       0.15353928       0.56309261 </v>
    <v>       0.62280757       0.19115363       0.60880758 </v>
    <v>       0.88147223       0.18511470       0.43139141 </v>
    <v>       0.95236510       0.08628917       0.38682135 </v>
    <v>       0.97704459       0.05289218       0.43229472 </v>
    <v>       0.81634995       0.69139122       0.42926801 </v>
    <v>       0.91461788       0.86145813       0.38655324 </v>
    <v>       0.94764955       0.91957914       0.43233267 </v>
    <v>       0.30891989       0.11938699       0.43015844 </v>
    <v>       0.13911376       0.04866279       0.38626802 </v>
    <v>       0.08066086       0.02350292       0.43153289 </v>
    <v>       0.83382106       0.34127490       0.40520768 </v>
    <v>       0.86727882       0.50525771       0.40114706 </v>
    <v>       0.83614183       0.53724178       0.42548195 </v>
    <v>       0.65913986       0.48738494       0.40480029 </v>
    <v>       0.49491378       0.35658632       0.39969595 </v>
    <v>       0.46288065       0.29382995       0.42522709 </v>
    <v>       0.51314607       0.16662462       0.40443424 </v>
    <v>       0.64321853       0.13269266       0.39841195 </v>
    <v>       0.70618661       0.16347816       0.42435635 </v>
    <v>       0.92948923       0.05147664       0.59181735 </v>
    <v>       0.81418734       0.10303466       0.56439357 </v>
    <v>       0.80067275       0.14885242       0.53884055 </v>
    <v>       0.94832701       0.87344120       0.59233397 </v>
    <v>       0.89743600       0.70671578       0.56552156 </v>
    <v>       0.85157700       0.64718578       0.53983543 </v>
    <v>       0.12658498       0.06973798       0.59212622 </v>
    <v>       0.29422537       0.18431871       0.56933750 </v>
    <v>       0.35375224       0.19834374       0.54192337 </v>
    <v>       0.80806770       0.48331979       0.58310944 </v>
    <v>       0.84015745       0.35502559       0.61973120 </v>
    <v>       0.82125354       0.29802599       0.57553629 </v>
    <v>       0.51593755       0.32088192       0.58455338 </v>
    <v>       0.64373492       0.48260308       0.61878637 </v>
    <v>       0.70134071       0.51988380       0.57535579 </v>
    <v>       0.67892386       0.18837525       0.58443267 </v>
    <v>       0.51792227       0.15614319       0.61845265 </v>
    <v>       0.48067898       0.17643994       0.57483089 </v>
    <v>       0.03478834       0.01744903       0.51916418 </v>
    <v>       0.98270060       0.01292368       0.51946791 </v>
    <v>       0.98711664       0.96539226       0.51998037 </v>
    <v>       0.80935495       0.20327073       0.47820418 </v>
    <v>       0.80849237       0.25264727       0.48418023 </v>
    <v>       0.75981914       0.20219027       0.50103703 </v>
    <v>       0.79731188       0.60123746       0.47802467 </v>
    <v>       0.74740346       0.55127803       0.48386492 </v>
    <v>       0.79750655       0.55245971       0.50125996 </v>
    <v>       0.39944353       0.19070020       0.47813480 </v>
    <v>       0.44972088       0.19147796       0.48322732 </v>
    <v>       0.44811708       0.24007454       0.50091044 </v>
    <v>       0.89621900       0.14819789       0.46112428 </v>
    <v>       0.87475455       0.16186313       0.45954705 </v>
    <v>       0.94311813       0.06591050       0.48792272 </v>
    <v>       0.94012410       0.08470601       0.43499299 </v>
    <v>       0.96247765       0.04805704       0.47931400 </v>
    <v>       0.85295046       0.74318540       0.45952730 </v>
    <v>       0.83937495       0.70805784       0.45807512 </v>
    <v>       0.93450195       0.87264490       0.48804898 </v>
    <v>       0.91602896       0.85081034       0.43483609 </v>
    <v>       0.95228386       0.90990776       0.47960450 </v>
    <v>       0.25714982       0.10417713       0.46075529 </v>
    <v>       0.29237002       0.12562374       0.45953104 </v>
    <v>       0.12765489       0.05708261       0.48771836 </v>
    <v>       0.14965739       0.06045820       0.43481485 </v>
    <v>       0.09034549       0.03784455       0.47879305 </v>
    <v>       0.83726928       0.49856642       0.49091336 </v>
    <v>       0.85501127       0.48940055       0.44523406 </v>
    <v>       0.84134041       0.43963018       0.50216560 </v>
    <v>       0.84158333       0.40693957       0.50355799 </v>
    <v>       0.83902884       0.38817407       0.44524709 </v>
    <v>       0.83671745       0.35643429       0.44978682 </v>
    <v>       0.82954170       0.52587363       0.47599009 </v>
    <v>       0.50120052       0.33398073       0.49081656 </v>
    <v>       0.51052567       0.36060692       0.44437930 </v>
    <v>       0.55989567       0.39744780       0.50204701 </v>
    <v>       0.59257744       0.43055871       0.50322646 </v>
    <v>       0.61180342       0.44609551       0.44491665 </v>
    <v>       0.64358463       0.47564727       0.44926715 </v>
    <v>       0.47420622       0.29872402       0.47579930 </v>
    <v>       0.66583041       0.16109828       0.49006989 </v>
    <v>       0.63920978       0.14405195       0.44340044 </v>
    <v>       0.60241666       0.15634884       0.50159473 </v>
    <v>       0.56947287       0.15618875       0.50281150 </v>
    <v>       0.55406313       0.16004870       0.44452012 </v>
    <v>       0.52478724       0.16269607       0.44888990 </v>
    <v>       0.70115080       0.16954461       0.47510526 </v>
    <v>       0.84447791       0.14582547       0.49762403 </v>
    <v>       0.83735361       0.11619708       0.53362186 </v>
    <v>       0.88702078       0.11815953       0.49809486 </v>
    <v>       0.90788604       0.10118055       0.49766105 </v>
    <v>       0.91087985       0.08403995       0.55400695 </v>
    <v>       0.92766708       0.06549557       0.54907054 </v>
    <v>       0.82227670       0.16075899       0.50319308 </v>
    <v>       0.85511716       0.69394530       0.49722355 </v>
    <v>       0.88446625       0.71659388       0.53399227 </v>
    <v>       0.88263835       0.76417510       0.49755443 </v>
    <v>       0.89943651       0.80203529       0.49744056 </v>
    <v>       0.91617821       0.82220866       0.55410268 </v>
    <v>       0.93462196       0.85758579       0.54932467 </v>
    <v>       0.84003754       0.65678366       0.50322372 </v>
    <v>       0.30670551       0.15522588       0.49944835 </v>
    <v>       0.28418632       0.16172140       0.53703694 </v>
    <v>       0.23627997       0.11276312       0.49926632 </v>
    <v>       0.19833761       0.09201441       0.49838373 </v>
    <v>       0.17796556       0.08854954       0.55471857 </v>
    <v>       0.14257406       0.07193193       0.54932876 </v>
    <v>       0.34395068       0.17732800       0.50500105 </v>
    <v>       0.82415577       0.44771767       0.55164488 </v>
    <v>       0.82241762       0.47739041       0.54679543 </v>
    <v>       0.83595931       0.34321618       0.51360174 </v>
    <v>       0.84005640       0.36409212       0.56902531 </v>
    <v>       0.82703524       0.30753959       0.52361947 </v>
    <v>       0.55154220       0.37253549       0.55240389 </v>
    <v>       0.52199898       0.34088232       0.54752068 </v>
    <v>       0.65635380       0.48890433       0.51294060 </v>
    <v>       0.63501296       0.47278858       0.56824589 </v>
    <v>       0.69210239       0.51570503       0.52319965 </v>
    <v>       0.62730071       0.17256483       0.55223817 </v>
    <v>       0.65892000       0.17466087       0.54718933 </v>
    <v>       0.51168208       0.16246605       0.51257365 </v>
    <v>       0.52761738       0.15703613       0.56788206 </v>
    <v>       0.48510411       0.17166035       0.52265890 </v>
   </varray>
  </structure>
  <varray name="forces" >
   <v>      -0.00193419       0.00044203      -0.00480708 </v>
   <v>       0.00012760       0.00009427       0.00227799 </v>
   <v>      -0.00252941       0.00085766       0.00389485 </v>
   <v>      -0.00184977       0.00125070      -0.00113907 </v>
   <v>      -0.00196940      -0.00063462       0.00065336 </v>
   <v>      -0.00001383      -0.00022516      -0.00249065 </v>
   <v>       0.00197720       0.00453541      -0.00070063 </v>
   <v>       0.00630277      -0.00043766      -0.00142019 </v>
   <v>      -0.00197203       0.00320052      -0.00020612 </v>
   <v>       0.00301539      -0.00267963       0.00133791 </v>
   <v>       0.00018179      -0.00123835      -0.00046664 </v>
   <v>       0.00246676       0.00195717       0.00043077 </v>
   <v>      -0.00055393      -0.00005272      -0.00001940 </v>
   <v>      -0.00066459       0.00099169       0.00113244 </v>
   <v>       0.00387830      -0.00069255      -0.00028294 </v>
   <v>      -0.00152576      -0.00140625      -0.00147437 </v>
   <v>      -0.00239903       0.00045735       0.00046277 </v>
   <v>       0.00185342       0.00037324       0.00050937 </v>
   <v>      -0.00041295      -0.00221958      -0.00064141 </v>
   <v>      -0.00208945      -0.00015820       0.00219698 </v>
   <v>      -0.00457042      -0.00174513       0.00317067 </v>
   <v>       0.00259291      -0.00056168      -0.00167932 </v>
   <v>      -0.00059535       0.00103218      -0.00595822 </v>
   <v>      -0.00010648      -0.00011684       0.00205260 </v>
   <v>      -0.00023761      -0.00061329      -0.00042491 </v>
   <v>      -0.00079190      -0.00221628       0.00051170 </v>
   <v>       0.00028902       0.00139933       0.00040359 </v>
   <v>       0.00131375       0.00194656      -0.00153162 </v>
   <v>       0.00009401      -0.00110860      -0.00086589 </v>
   <v>      -0.00442146       0.00057451       0.00208361 </v>
   <v>      -0.00277747       0.00316363      -0.00008669 </v>
   <v>       0.00110271      -0.00458189       0.00087809 </v>
   <v>      -0.00174106       0.00255689      -0.00004693 </v>
   <v>       0.00135102       0.00041832      -0.00214868 </v>
   <v>       0.00129379      -0.00095062      -0.00037345 </v>
   <v>      -0.00048235      -0.00002508      -0.00158619 </v>
   <v>      -0.00192023      -0.00243221      -0.00032051 </v>
[...]
       <r>   -14.6669    51.0513   269.9417 </r>
       <r>   -14.5505    74.4274   278.6624 </r>
       <r>   -14.4342     0.0000   280.0000 </r>
       <r>   -14.3178    60.9673   287.0958 </r>
       <r>   -14.2014    15.3291   294.0174 </r>
       <r>   -14.0850    86.9585   305.9209 </r>
       <r>   -13.9686     4.2970   308.0001 </r>
       <r>   -13.8522    33.0156   313.9093 </r>
       <r>   -13.7358    35.5141   318.1334 </r>
       <r>   -13.6194    82.7632   329.6326 </r>
       <r>   -13.5031    48.2751   337.6186 </r>
       <r>   -13.3867    47.8811   343.5728 </r>
       <r>   -13.2703     0.0001   348.0000 </r>
       <r>   -13.1539    51.5508   355.9999 </r>
       <r>   -13.0375     0.0042   356.0005 </r>
       <r>   -12.9211    93.8314   370.9208 </r>
       <r>   -12.8047    51.9989   378.0520 </r>
       <r>   -12.6883     0.0002   380.0000 </r>
       <r>   -12.5720   165.3451   401.2441 </r>
       <r>   -12.4556    32.3886   407.7696 </r>
       <r>   -12.3392    50.4708   413.8742 </r>
       <r>   -12.2228    50.7140   419.9025 </r>
       <r>   -12.1064    17.2373   422.0062 </r>
       <r>   -11.9900     9.0424   427.0524 </r>
       <r>   -11.8736    50.3976   437.9990 </r>
       <r>   -11.7572    29.5068   441.4342 </r>
       <r>   -11.6409    28.9091   445.3647 </r>
       <r>   -11.5245     0.0000   446.0000 </r>
       <r>   -11.4081    26.6490   449.1016 </r>
       <r>   -11.2917    87.0114   460.1271 </r>
       <r>   -11.1753    17.1840   464.0000 </r>
       <r>   -11.0589    35.1097   468.0863 </r>
       <r>   -10.9425    39.2589   473.8359 </r>
       <r>   -10.8261    68.7353   481.9999 </r>
       <r>   -10.7098    47.2559   488.0000 </r>
       <r>   -10.5934   139.3749   504.2215 </r>
       <r>   -10.4770    17.1446   511.9954 </r>
       <r>   -10.3606     0.0000   512.0000 </r>
       <r>   -10.2442     0.0000   512.0000 </r>
       <r>   -10.1278    70.0573   520.1538 </r>
       <r>   -10.0114     0.0000   524.0000 </r>
       <r>    -9.8950    35.5262   528.1348 </r>
       <r>    -9.7787     0.0056   530.0006 </r>
       <r>    -9.6623    17.0598   535.9855 </r>
       <r>    -9.5459    34.3681   540.0000 </r>
       <r>    -9.4295    34.3634   547.9995 </r>
       <r>    -9.3131    32.8914   551.8282 </r>
       <r>    -9.1967    12.8880   556.0000 </r>
       <r>    -9.0803     0.0000   556.0000 </r>
       <r>    -8.9639     0.0000   556.0000 </r>
       <r>    -8.8476     0.1888   556.0220 </r>
       <r>    -8.7312    38.1707   564.4426 </r>
       <r>    -8.6148    51.5153   571.9957 </r>
       <r>    -8.4984     0.0000   572.0000 </r>
       <r>    -8.3820    63.0795   579.3417 </r>
       <r>    -8.2656    85.9039   595.9982 </r>
       <r>    -8.1492     0.0000   596.0000 </r>
       <r>    -8.0328     0.0000   596.0000 </r>
       <r>    -7.9165    73.9708   604.6093 </r>
       <r>    -7.8001     0.3093   620.0360 </r>
       <r>    -7.6837    84.3213   631.8140 </r>
       <r>    -7.5673    63.7224   639.4165 </r>
       <r>    -7.4509   100.0349   655.6428 </r>
       <r>    -7.3345     0.0000   656.0000 </r>
       <r>    -7.2181    15.8235   657.8417 </r>
       <r>    -7.1017    51.7117   668.0186 </r>
       <r>    -6.9854    47.5853   675.5383 </r>
       <r>    -6.8690   154.6490   699.9992 </r>
       <r>    -6.7526   103.1038   716.0000 </r>
       <r>    -6.6362   180.4221   738.6322 </r>
       <r>    -6.5198    62.9859   747.3308 </r>
       <r>    -6.4034    51.5519   756.0000 </r>
       <r>    -6.2870     0.0000   756.0000 </r>
       <r>    -6.1706     0.0000   756.0000 </r>
       <r>    -6.0543     0.0000   756.0000 </r>
       <r>    -5.9379     0.0000   756.0000 </r>
       <r>    -5.8215     0.0000   756.0000 </r>
       <r>    -5.7051     0.0000   756.0000 </r>
       <r>    -5.5887     0.0000   756.0000 </r>
       <r>    -5.4723     0.0000   756.0000 </r>
       <r>    -5.3559     0.0000   756.0000 </r>
       <r>    -5.2395     0.0000   756.0000 </r>
       <r>    -5.1232     0.0000   756.0000 </r>
       <r>    -5.0068     0.0000   756.0000 </r>
       <r>    -4.8904     0.0000   756.0000 </r>
       <r>    -4.7740     0.0000   756.0000 </r>
       <r>    -4.6576     0.0000   756.0000 </r>
       <r>    -4.5412     0.0000   756.0000 </r>
       <r>    -4.4248     0.0000   756.0000 </r>
       <r>    -4.3084     0.0000   756.0000 </r>
       <r>    -4.1921     0.0015   756.0002 </r>
       <r>    -4.0757    18.8456   762.1934 </r>
       <r>    -3.9593    34.3679   768.0000 </r>
       <r>    -3.8429     0.0000   768.0000 </r>
       <r>    -3.7265     0.0000   768.0000 </r>
       <r>    -3.6101     0.0000   768.0000 </r>
       <r>    -3.4937    68.1671   775.9338 </r>
       <r>    -3.3773   103.1037   796.0000 </r>
       <r>    -3.2609    17.1838   798.0000 </r>
       <r>    -3.1446    51.5519   804.0000 </r>
       <r>    -3.0282     0.0000   804.0000 </r>
       <r>    -2.9118     0.0000   804.0000 </r>
       <r>    -2.7954     0.0000   804.0000 </r>
       <r>    -2.6790     0.0000   804.0000 </r>
       <r>    -2.5626     2.9792   804.3467 </r>
       <r>    -2.4462    87.2195   820.1513 </r>
       <r>    -2.3298    30.6405   827.9995 </r>
       <r>    -2.2135     0.0000   828.0000 </r>
       <r>    -2.0971    20.5921   830.3967 </r>
       <r>    -1.9807     0.8363   836.0973 </r>
       <r>    -1.8643    24.9167   840.0000 </r>
       <r>    -1.7479    34.3663   843.9998 </r>
       <r>    -1.6315     0.0058   844.0007 </r>
       <r>    -1.5151     8.3056   846.0000 </r>
       <r>    -1.3987    31.6785   849.6870 </r>
       <r>    -1.2824     0.0000   850.0000 </r>
       <r>    -1.1660    45.9634   855.8162 </r>
       <r>    -1.0496     0.0000   856.0000 </r>
       <r>    -0.9332     0.0000   856.0000 </r>
       <r>    -0.8168     0.0000   856.0000 </r>
       <r>    -0.7004    35.2999   860.1085 </r>
       <r>    -0.5840    32.5904   866.1931 </r>
       <r>    -0.4676     0.0473   870.0055 </r>
       <r>    -0.3513    34.3679   876.0000 </r>
       <r>    -0.2349    53.5697   882.2349 </r>
       <r>    -0.1185    37.9101   891.1123 </r>
       <r>    -0.0021    30.8686   895.5927 </r>
       <r>     0.1143    36.3986   902.4697 </r>
       <r>     0.2307    85.7838   914.7842 </r>
       <r>     0.3471    56.6023   923.5211 </r>
       <r>     0.4635    84.8721   936.2781 </r>
       <r>     0.5798   118.3873   955.0455 </r>
       <r>     0.6962     6.8736   960.0000 </r>
       <r>     0.8126     0.0000   960.0000 </r>
       <r>     0.9290     0.0000   960.0000 </r>
       <r>     1.0454     0.0000   960.0000 </r>
       <r>     1.1618     0.0000   960.0000 </r>
       <r>     1.2782     0.0000   960.0000 </r>
       <r>     1.3946     0.0000   960.0000 </r>
       <r>     1.5109     0.0000   960.0000 </r>
       <r>     1.6273     0.0000   960.0000 </r>
       <r>     1.7437     0.0000   960.0000 </r>
       <r>     1.8601     0.0000   960.0000 </r>
       <r>     1.9765     0.0000   960.0000 </r>
       <r>     2.0929     0.0000   960.0000 </r>
       <r>     2.2093     0.0000   960.0000 </r>
      </set>
     </set>
    </array>
   </total>
  </dos>
 </calculation>
 <structure name="finalpos" >
  <crystal>
   <varray name="basis" >
    <v>      44.99961989      -0.06156824       0.00000000 </v>
    <v>     -22.55294799      39.02134395       0.00000000 </v>
    <v>       0.00000000       0.00000000      20.00000000 </v>
   </varray>
   <i name="volume">  35091.14200064 </i>
   <varray name="rec_basis" >
    <v>       0.02224000       0.01285393       0.00000000 </v>
    <v>       0.00003509       0.02564728       0.00000000 </v>
    <v>       0.00000000       0.00000000       0.05000000 </v>
   </varray>
  </crystal>
  <varray name="positions" >
   <v>       0.92896391       0.17522639       0.36749618 </v>
   <v>       0.95561357       0.17521978       0.46018022 </v>
   <v>       0.82749531       0.74959710       0.36407085 </v>
   <v>       0.82475091       0.77425801       0.45740796 </v>
   <v>       0.25062390       0.07316170       0.36415383 </v>
   <v>       0.22578700       0.04487749       0.45677795 </v>
   <v>       0.85699627       0.40286325       0.33566913 </v>
   <v>       0.81022895       0.40304210       0.36846556 </v>
   <v>       0.59768326       0.44784239       0.33423002 </v>
   <v>       0.59776602       0.40161449       0.37050973 </v>
   <v>       0.55219536       0.14376519       0.33410340 </v>
   <v>       0.59848349       0.19039845       0.36987138 </v>
   <v>       0.88093257       0.05961606       0.65178189 </v>
   <v>       0.90699579       0.11589985       0.64071537 </v>
   <v>       0.94003677       0.81707722       0.65302625 </v>
   <v>       0.88379064       0.78624642       0.64027068 </v>
   <v>       0.18335341       0.11757238       0.65364654 </v>
   <v>       0.21302496       0.09102018       0.64164302 </v>
   <v>       0.81261062       0.43471568       0.66405472 </v>
   <v>       0.77992097       0.39569073       0.58968187 </v>
   <v>       0.56339715       0.37416794       0.66544511 </v>
   <v>       0.60375455       0.38196398       0.59312344 </v>
   <v>       0.62497929       0.18160935       0.66556274 </v>
   <v>       0.61886782       0.21563144       0.59439151 </v>
   <v>       0.01688579       0.03403478       0.51880348 </v>
   <v>       0.96603020       0.97840973       0.52000805 </v>
   <v>       0.02167491       0.98333227       0.51974362 </v>
   <v>       0.07022184       0.03781886       0.52389899 </v>
   <v>       0.97218551       0.93002416       0.52498138 </v>
   <v>       0.96229042       0.02785562       0.52436164 </v>
   <v>       0.82711336       0.23751567       0.47191082 </v>
   <v>       0.77511518       0.23660935       0.50119770 </v>
   <v>       0.77524249       0.18373321       0.49020290 </v>
   <v>       0.82919531       0.18772920       0.46946607 </v>
   <v>       0.72515473       0.18648226       0.51725739 </v>
   <v>       0.82401152       0.28784718       0.47485894 </v>
   <v>       0.76301909       0.58505841       0.47153596 </v>
   <v>       0.76302335       0.53362738       0.50094836 </v>
   <v>       0.81647374       0.58636708       0.49051300 </v>
   <v>       0.81328302       0.63663612       0.46888152 </v>
   <v>       0.81261264       0.53306588       0.51782839 </v>
   <v>       0.71214438       0.53181416       0.47443594 </v>
   <v>       0.41586580       0.17292523       0.47116918 </v>
   <v>       0.46721006       0.22477794       0.50031196 </v>
   <v>       0.41411563       0.22472735       0.49051902 </v>
   <v>       0.36397156       0.17097656       0.46974392 </v>
   <v>       0.46725315       0.27463057       0.51754435 </v>
   <v>       0.46939017       0.17598036       0.47369984 </v>
   <v>       0.92244936       0.10111642       0.43923062 </v>
   <v>       0.92966964       0.16744362       0.42647590 </v>
   <v>       0.89973470       0.81669173       0.43891532 </v>
   <v>       0.83385614       0.75718369       0.42377019 </v>
   <v>       0.18382250       0.07799187       0.43951773 </v>
   <v>       0.24296490       0.07138084       0.42392080 </v>
   <v>       0.85733796       0.46113221       0.45112811 </v>
   <v>       0.83540039       0.39944280       0.37772644 </v>
   <v>       0.53869502       0.39140166       0.45018107 </v>
   <v>       0.60103098       0.43033539       0.37783840 </v>
   <v>       0.60843582       0.14142708       0.44935270 </v>
   <v>       0.56974922       0.16483441       0.37745018 </v>
   <v>       0.85760728       0.10246365       0.53298999 </v>
   <v>       0.89817684       0.08666403       0.62065102 </v>
   <v>       0.89812856       0.75058074       0.53328136 </v>
   <v>       0.91317388       0.80694288       0.62097524 </v>
   <v>       0.25011704       0.14152204       0.53609754 </v>
   <v>       0.19302128       0.10043310       0.62186530 </v>
   <v>       0.84320575       0.39501650       0.56413626 </v>
   <v>       0.80423938       0.42386271       0.60644187 </v>
   <v>       0.60404946       0.44488955       0.56349361 </v>
   <v>       0.57503532       0.37712243       0.60836903 </v>
   <v>       0.55523480       0.15353928       0.56309261 </v>
   <v>       0.62280757       0.19115363       0.60880758 </v>
   <v>       0.88147223       0.18511470       0.43139141 </v>
   <v>       0.95236510       0.08628917       0.38682135 </v>
   <v>       0.97704459       0.05289218       0.43229472 </v>
   <v>       0.81634995       0.69139122       0.42926801 </v>
   <v>       0.91461788       0.86145813       0.38655324 </v>
   <v>       0.94764955       0.91957914       0.43233267 </v>
   <v>       0.30891989       0.11938699       0.43015844 </v>
   <v>       0.13911376       0.04866279       0.38626802 </v>
   <v>       0.08066086       0.02350292       0.43153289 </v>
   <v>       0.83382106       0.34127490       0.40520768 </v>
   <v>       0.86727882       0.50525771       0.40114706 </v>
   <v>       0.83614183       0.53724178       0.42548195 </v>
   <v>       0.65913986       0.48738494       0.40480029 </v>
   <v>       0.49491378       0.35658632       0.39969595 </v>
   <v>       0.46288065       0.29382995       0.42522709 </v>
   <v>       0.51314607       0.16662462       0.40443424 </v>
   <v>       0.64321853       0.13269266       0.39841195 </v>
   <v>       0.70618661       0.16347816       0.42435635 </v>
   <v>       0.92948923       0.05147664       0.59181735 </v>
   <v>       0.81418734       0.10303466       0.56439357 </v>
   <v>       0.80067275       0.14885242       0.53884055 </v>
   <v>       0.94832701       0.87344120       0.59233397 </v>
   <v>       0.89743600       0.70671578       0.56552156 </v>
   <v>       0.85157700       0.64718578       0.53983543 </v>
   <v>       0.12658498       0.06973798       0.59212622 </v>
   <v>       0.29422537       0.18431871       0.56933750 </v>
   <v>       0.35375224       0.19834374       0.54192337 </v>
   <v>       0.80806770       0.48331979       0.58310944 </v>
   <v>       0.84015745       0.35502559       0.61973120 </v>
   <v>       0.82125354       0.29802599       0.57553629 </v>
   <v>       0.51593755       0.32088192       0.58455338 </v>
   <v>       0.64373492       0.48260308       0.61878637 </v>
   <v>       0.70134071       0.51988380       0.57535579 </v>
   <v>       0.67892386       0.18837525       0.58443267 </v>
   <v>       0.51792227       0.15614319       0.61845265 </v>
   <v>       0.48067898       0.17643994       0.57483089 </v>
   <v>       0.03478834       0.01744903       0.51916418 </v>
   <v>       0.98270060       0.01292368       0.51946791 </v>
   <v>       0.98711664       0.96539226       0.51998037 </v>
   <v>       0.80935495       0.20327073       0.47820418 </v>
   <v>       0.80849237       0.25264727       0.48418023 </v>
   <v>       0.75981914       0.20219027       0.50103703 </v>
   <v>       0.79731188       0.60123746       0.47802467 </v>
   <v>       0.74740346       0.55127803       0.48386492 </v>
   <v>       0.79750655       0.55245971       0.50125996 </v>
   <v>       0.39944353       0.19070020       0.47813480 </v>
   <v>       0.44972088       0.19147796       0.48322732 </v>
   <v>       0.44811708       0.24007454       0.50091044 </v>
   <v>       0.89621900       0.14819789       0.46112428 </v>
   <v>       0.87475455       0.16186313       0.45954705 </v>
   <v>       0.94311813       0.06591050       0.48792272 </v>
   <v>       0.94012410       0.08470601       0.43499299 </v>
   <v>       0.96247765       0.04805704       0.47931400 </v>
   <v>       0.85295046       0.74318540       0.45952730 </v>
   <v>       0.83937495       0.70805784       0.45807512 </v>
   <v>       0.93450195       0.87264490       0.48804898 </v>
   <v>       0.91602896       0.85081034       0.43483609 </v>
   <v>       0.95228386       0.90990776       0.47960450 </v>
   <v>       0.25714982       0.10417713       0.46075529 </v>
   <v>       0.29237002       0.12562374       0.45953104 </v>
   <v>       0.12765489       0.05708261       0.48771836 </v>
   <v>       0.14965739       0.06045820       0.43481485 </v>
   <v>       0.09034549       0.03784455       0.47879305 </v>
   <v>       0.83726928       0.49856642       0.49091336 </v>
   <v>       0.85501127       0.48940055       0.44523406 </v>
   <v>       0.84134041       0.43963018       0.50216560 </v>
   <v>       0.84158333       0.40693957       0.50355799 </v>
   <v>       0.83902884       0.38817407       0.44524709 </v>
   <v>       0.83671745       0.35643429       0.44978682 </v>
   <v>       0.82954170       0.52587363       0.47599009 </v>
   <v>       0.50120052       0.33398073       0.49081656 </v>
   <v>       0.51052567       0.36060692       0.44437930 </v>
   <v>       0.55989567       0.39744780       0.50204701 </v>
   <v>       0.59257744       0.43055871       0.50322646 </v>
   <v>       0.61180342       0.44609551       0.44491665 </v>
   <v>       0.64358463       0.47564727       0.44926715 </v>
   <v>       0.47420622       0.29872402       0.47579930 </v>
   <v>       0.66583041       0.16109828       0.49006989 </v>
   <v>       0.63920978       0.14405195       0.44340044 </v>
   <v>       0.60241666       0.15634884       0.50159473 </v>
   <v>       0.56947287       0.15618875       0.50281150 </v>
   <v>       0.55406313       0.16004870       0.44452012 </v>
   <v>       0.52478724       0.16269607       0.44888990 </v>
   <v>       0.70115080       0.16954461       0.47510526 </v>
   <v>       0.84447791       0.14582547       0.49762403 </v>
   <v>       0.83735361       0.11619708       0.53362186 </v>
   <v>       0.88702078       0.11815953       0.49809486 </v>
   <v>       0.90788604       0.10118055       0.49766105 </v>
   <v>       0.91087985       0.08403995       0.55400695 </v>
   <v>       0.92766708       0.06549557       0.54907054 </v>
   <v>       0.82227670       0.16075899       0.50319308 </v>
   <v>       0.85511716       0.69394530       0.49722355 </v>
   <v>       0.88446625       0.71659388       0.53399227 </v>
   <v>       0.88263835       0.76417510       0.49755443 </v>
   <v>       0.89943651       0.80203529       0.49744056 </v>
   <v>       0.91617821       0.82220866       0.55410268 </v>
   <v>       0.93462196       0.85758579       0.54932467 </v>
   <v>       0.84003754       0.65678366       0.50322372 </v>
   <v>       0.30670551       0.15522588       0.49944835 </v>
   <v>       0.28418632       0.16172140       0.53703694 </v>
   <v>       0.23627997       0.11276312       0.49926632 </v>
   <v>       0.19833761       0.09201441       0.49838373 </v>
   <v>       0.17796556       0.08854954       0.55471857 </v>
   <v>       0.14257406       0.07193193       0.54932876 </v>
   <v>       0.34395068       0.17732800       0.50500105 </v>
   <v>       0.82415577       0.44771767       0.55164488 </v>
   <v>       0.82241762       0.47739041       0.54679543 </v>
   <v>       0.83595931       0.34321618       0.51360174 </v>
   <v>       0.84005640       0.36409212       0.56902531 </v>
   <v>       0.82703524       0.30753959       0.52361947 </v>
   <v>       0.55154220       0.37253549       0.55240389 </v>
   <v>       0.52199898       0.34088232       0.54752068 </v>
   <v>       0.65635380       0.48890433       0.51294060 </v>
   <v>       0.63501296       0.47278858       0.56824589 </v>
   <v>       0.69210239       0.51570503       0.52319965 </v>
   <v>       0.62730071       0.17256483       0.55223817 </v>
   <v>       0.65892000       0.17466087       0.54718933 </v>
   <v>       0.51168208       0.16246605       0.51257365 </v>
   <v>       0.52761738       0.15703613       0.56788206 </v>
   <v>       0.48510411       0.17166035       0.52265890 </v>
  </varray>
 </structure>
</modeling>
