<?xml version="1.0" encoding="ISO-8859-1"?>
<modeling>
 <generator>
  <i name="program" type="string">vasp </i>
  <i name="version" type="string">5.4.4.18Apr17-6-g9f103f2a35  </i>
  <i name="subversion" type="string">(build Jun 07 2020 16:50:00) complex            parallel </i>
  <i name="platform" type="string">LinuxIFC </i>
  <i name="date" type="string">2023 02 02 </i>
  <i name="time" type="string">09:00:19 </i>
 </generator>
 <incar>
  <i type="string" name="SYSTEM">Simulation for cell shape cell volume r</i>
  <i type="int" name="ISTART">     1</i>
  <i type="string" name="PREC">high</i>
  <i type="string" name="ALGO">48</i>
  <i type="int" name="ICHARG">    11</i>
  <i type="int" name="NELM">   200</i>
  <i type="int" name="IBRION">    -1</i>
  <i name="EDIFF">      0.00001000</i>
  <i name="EDIFFG">     -0.01000000</i>
  <i type="int" name="NSW">     0</i>
  <i type="int" name="ISIF">     2</i>
  <i name="ENCUT">    500.00000000</i>
  <i name="POTIM">      0.30000000</i>
  <i type="string" name="LREAL">A</i>
  <i type="int" name="ISMEAR">     0</i>
  <i name="SIGMA">      0.01000000</i>
  <i type="int" name="NWRITE">     0</i>
  <i type="logical" name="LWAVE"> T  </i>
  <i type="logical" name="LCHARG"> T  </i>
  <v type="int" name="KPOINT_BSE">    -1     0     0     0</v>
  <i type="int" name="NELM">   200</i>
  <i type="string" name="GGA">PE</i>
 </incar>
 <structure name="primitive_cell" >
  <crystal>
   <varray name="basis" >
    <v>      34.19462338      -0.01383197       0.00000000 </v>
    <v>     -17.10927606      29.66964511       0.00000000 </v>
    <v>       0.00000000       0.00000000      20.00000000 </v>
   </varray>
   <i name="volume">  20286.11370530 </i>
   <varray name="rec_basis" >
    <v>       0.02925119       0.01686797       0.00000000 </v>
    <v>       0.00001364       0.03371235       0.00000000 </v>
    <v>       0.00000000       0.00000000       0.05000000 </v>
   </varray>
  </crystal>
  <varray name="positions" >
   <v>       0.03703085      -0.02153640      -0.47078700 </v>
   <v>       0.06057115       0.02373766      -0.47140740 </v>
   <v>      -0.00821135      -0.03950452      -0.47100819 </v>
   <v>       0.11012209       0.04393705      -0.47106475 </v>
   <v>       0.04255031       0.05089625      -0.47257406 </v>
   <v>      -0.03001546      -0.01600411      -0.47201560 </v>
   <v>      -0.03759695      -0.08895233      -0.47049251 </v>
   <v>       0.12195008       0.01938507      -0.47460471 </v>
   <v>      -0.00280396       0.02914886      -0.47218974 </v>
   <v>      -0.02115767      -0.11508666      -0.46359053 </v>
   <v>      -0.07398259      -0.10070871      -0.47447011 </v>
   <v>       0.13630559       0.08653103      -0.46468414 </v>
   <v>       0.01701763      -0.12513948      -0.37650331 </v>
   <v>      -0.05547293      -0.12480031       0.42025471 </v>
   <v>       0.14567944       0.06131416       0.41956954 </v>
   <v>      -0.02306412       0.05840147      -0.47216443 </v>
   <v>      -0.04777308      -0.16186289      -0.46554031 </v>
   <v>       0.00152067       0.09476479      -0.47553889 </v>
   <v>       0.18313967       0.10659877      -0.46671043 </v>
   <v>      -0.00709980      -0.15920353      -0.35889236 </v>
   <v>       0.18153917       0.07151274       0.41953055 </v>
   <v>       0.18390719       0.04066200       0.41617946 </v>
   <v>      -0.08121468      -0.16056723       0.42046774 </v>
   <v>      -0.06576352       0.04191513      -0.46610698 </v>
   <v>      -0.04048742      -0.18558019      -0.41317363 </v>
   <v>      -0.02416509      -0.15556639      -0.31453983 </v>
   <v>      -0.07787929      -0.18510648       0.48095701 </v>
   <v>       0.14660075       0.13482766      -0.37764027 </v>
   <v>       0.20625315       0.09954783       0.47981371 </v>
   <v>      -0.11441178      -0.16278465       0.41707687 </v>
   <v>       0.01149232      -0.17586690      -0.34215696 </v>
   <v>      -0.07704836      -0.17542127       0.37415465 </v>
   <v>      -0.04050723       0.07672384       0.41822656 </v>
   <v>       0.20699268       0.13760088      -0.41442747 </v>
   <v>       0.19621106       0.09044742       0.37308781 </v>
   <v>       0.17688529       0.12377583      -0.31580591 </v>
   <v>       0.18067187       0.14460054      -0.36004075 </v>
   <v>      -0.11470355       0.00333235      -0.37990159 </v>
   <v>      -0.08581345       0.06866556      -0.46799894 </v>
   <v>      -0.06583624      -0.23263392      -0.41161570 </v>
   <v>      -0.10334879      -0.23252589       0.48243101 </v>
   <v>       0.25374904       0.12145873       0.48111180 </v>
   <v>      -0.05032580       0.10262525       0.41862728 </v>
   <v>       0.19749307       0.17978310      -0.34311457 </v>
   <v>      -0.12462366       0.02743619      -0.36210549 </v>
   <v>      -0.01919032       0.13567048       0.41572957 </v>
   <v>      -0.10419913       0.04403758      -0.31733259 </v>
   <v>      -0.09832739      -0.25590801      -0.46251149 </v>
   <v>       0.25411782       0.15929469      -0.41306150 </v>
   <v>      -0.07842722       0.09917194       0.47894172 </v>
   <v>      -0.11706533       0.06124963      -0.41591368 </v>
   <v>      -0.02576797      -0.24491293      -0.33973578 </v>
   <v>       0.27729165       0.15001403      -0.46404860 </v>
   <v>       0.27285711       0.08176300       0.41852082 </v>
   <v>      -0.06911352       0.09887651       0.37217626 </v>
   <v>      -0.11407663      -0.24481931       0.37628169 </v>
   <v>      -0.06104253      -0.25935562      -0.35567717 </v>
   <v>       0.27824735       0.11620148       0.42209006 </v>
   <v>      -0.13296738      -0.25715513       0.42336792 </v>
   <v>       0.26586374       0.12262881       0.37495420 </v>
   <v>      -0.16215798      -0.25192695       0.41952580 </v>
   <v>      -0.16003093       0.00893344      -0.34595229 </v>
   <v>      -0.08047031      -0.26000472      -0.31126779 </v>
   <v>       0.28102945       0.19081941      -0.35722293 </v>
   <v>       0.28187497       0.17207781      -0.31294030 </v>
   <v>       0.26656059       0.21153642      -0.34101142 </v>
   <v>      -0.12141794      -0.30269613      -0.45852188 </v>
   <v>      -0.07400013      -0.29442185      -0.37127761 </v>
   <v>      -0.10005210       0.12498077       0.48068644 </v>
   <v>      -0.14599524      -0.29352988       0.42541016 </v>
   <v>       0.31470823       0.13944712       0.42395343 </v>
   <v>      -0.13848773       0.08689946      -0.41411492 </v>
   <v>       0.32416109       0.17379356      -0.46031661 </v>
   <v>       0.33488358       0.11855332      -0.46957897 </v>
   <v>      -0.18740830      -0.31333697      -0.46831757 </v>
   <v>       0.31609091       0.21299398      -0.37304291 </v>
   <v>      -0.12870641       0.11981518      -0.46448497 </v>
   <v>      -0.16432535      -0.32698594      -0.46452756 </v>
   <v>       0.34851893       0.15525336      -0.46604892 </v>
   <v>      -0.10110140       0.13653683       0.37474405 </v>
   <v>      -0.09442212       0.15514052       0.42210346 </v>
   <v>      -0.05975976       0.18391635       0.41867067 </v>
   <v>      -0.19125380       0.04677895      -0.34281155 </v>
   <v>      -0.17019367       0.08204423      -0.35836183 </v>
   <v>      -0.15151004       0.10115325      -0.31371282 </v>
   <v>      -0.11736397       0.16869692       0.42438242 </v>
   <v>      -0.15213535       0.14320607      -0.46024632 </v>
   <v>      -0.19209715       0.09529882      -0.37393198 </v>
   <v>      -0.18646545      -0.37663889      -0.46675672 </v>
   <v>       0.39824836       0.18281101      -0.46836519 </v>
   <v>      -0.09640013       0.20900931      -0.46831322 </v>
   <v>      -0.16050329      -0.39594190      -0.46619182 </v>
   <v>      -0.13321619       0.18612853      -0.46515918 </v>
   <v>       0.42040214       0.15948325      -0.47295565 </v>
   <v>       0.41758821       0.22804000      -0.46757858 </v>
   <v>      -0.23199240      -0.39876901      -0.47104235 </v>
   <v>      -0.18351020      -0.44111628      -0.47240805 </v>
   <v>      -0.12052882      -0.44341946      -0.46436700 </v>
   <v>      -0.16056102       0.20850927      -0.46711573 </v>
   <v>       0.46566057       0.18556624      -0.47829515 </v>
   <v>       0.46278013       0.25019034      -0.47465275 </v>
   <v>      -0.25111397      -0.44398294      -0.47603529 </v>
   <v>      -0.15695951      -0.46450156      -0.47442261 </v>
   <v>       0.47436609       0.12576017      -0.47817391 </v>
   <v>      -0.20586971       0.18276656      -0.46677938 </v>
   <v>      -0.22861386      -0.46661890      -0.47732635 </v>
   <v>       0.46542949       0.31551148      -0.46629680 </v>
   <v>       0.48827169       0.23064525      -0.48007906 </v>
   <v>      -0.13702345       0.25396646      -0.47093890 </v>
   <v>       0.49292084       0.16284562      -0.48260092 </v>
   <v>      -0.31967902      -0.45257116      -0.47648072 </v>
   <v>       0.48632707       0.30005881      -0.47686914 </v>
   <v>      -0.30111947      -0.47114136      -0.48067875 </v>
   <v>      -0.13861636      -0.49360563      -0.37514433 </v>
   <v>      -0.08456170      -0.48539981      -0.39450067 </v>
   <v>      -0.17765119       0.49375895      -0.49058331 </v>
   <v>      -0.22788195       0.20590178      -0.47400543 </v>
   <v>      -0.48010677       0.13936011      -0.38878791 </v>
   <v>      -0.16298671       0.27325232      -0.47664131 </v>
   <v>      -0.46482096       0.18769774      -0.49299338 </v>
   <v>      -0.47194707       0.32093612      -0.49359796 </v>
   <v>      -0.11981870       0.48866667      -0.38414269 </v>
   <v>      -0.29334887       0.14327413      -0.46585337 </v>
   <v>      -0.48414635       0.34676679      -0.37722808 </v>
   <v>      -0.31851443       0.48668610      -0.49128104 </v>
   <v>      -0.35210153      -0.49845910      -0.38740670 </v>
   <v>      -0.49332408       0.39182874      -0.39723366 </v>
   <v>      -0.20813469       0.25091691      -0.47944714 </v>
   <v>      -0.10281465       0.34153346      -0.47564288 </v>
   <v>      -0.27783783       0.17960853      -0.47637604 </v>
   <v>      -0.16456076       0.46183887      -0.49268200 </v>
   <v>      -0.22466073       0.45821390       0.42192732 </v>
   <v>      -0.11960609       0.47221952      -0.33722297 </v>
   <v>      -0.46040667       0.10051992      -0.38352316 </v>
   <v>      -0.44963213       0.13663424      -0.38560957 </v>
   <v>      -0.18484752       0.46305691       0.36143334 </v>
   <v>      -0.13995150       0.32323495      -0.48025924 </v>
   <v>      -0.46691930       0.38321969      -0.38650854 </v>
   <v>      -0.13980756       0.45540147      -0.44082046 </v>
   <v>      -0.43181047       0.23877815       0.41970055 </v>
   <v>      -0.43689401       0.30987818       0.41832615 </v>
   <v>      -0.29997677       0.45385013       0.42142376 </v>
   <v>      -0.43819317       0.19649584       0.36310710 </v>
   <v>      -0.42873206       0.18064490      -0.49534111 </v>
   <v>      -0.43985263       0.36589356      -0.49528714 </v>
   <v>      -0.33539289       0.46101560       0.36474238 </v>
   <v>      -0.20848001       0.44047486       0.39979556 </v>
   <v>      -0.38543261       0.47124591      -0.38477097 </v>
   <v>      -0.43358720       0.15124375      -0.33728597 </v>
   <v>      -0.43932911       0.34603981       0.35751176 </v>
   <v>      -0.41065632       0.48224096      -0.38309285 </v>
   <v>      -0.36169075       0.45072400      -0.49426760 </v>
   <v>      -0.45070295       0.40018387      -0.33964444 </v>
   <v>      -0.18403164       0.43028673       0.45346354 </v>
   <v>      -0.41769269       0.15965060      -0.44307660 </v>
   <v>      -0.41386924       0.22296869       0.39682863 </v>
   <v>      -0.32482091       0.16220901      -0.37738018 </v>
   <v>      -0.43346003       0.39680380      -0.44304464 </v>
   <v>      -0.33361724       0.43632891       0.39808742 </v>
   <v>      -0.29870324       0.20042477      -0.49310758 </v>
   <v>      -0.41797368       0.34394327       0.39701460 </v>
   <v>      -0.37114498       0.10822072      -0.39517397 </v>
   <v>      -0.38731230       0.45498070      -0.33649591 </v>
   <v>      -0.11567864       0.37426342      -0.38665233 </v>
   <v>      -0.39820082       0.20326716       0.45065357 </v>
   <v>      -0.39406879       0.43954240      -0.44242015 </v>
   <v>      -0.16459594       0.34087813      -0.49037052 </v>
   <v>      -0.40804910       0.37822007       0.45109849 </v>
   <v>      -0.13627082       0.41613161      -0.44075614 </v>
   <v>      -0.23408793       0.41007827       0.37428880 </v>
   <v>      -0.07676286       0.43277208      -0.38180042 </v>
   <v>      -0.36931361       0.42047600       0.45148075 </v>
   <v>      -0.36142801       0.14365078      -0.38584988 </v>
   <v>      -0.38615121       0.24784078       0.36597796 </v>
   <v>      -0.33645659       0.40881860       0.36679807 </v>
   <v>      -0.38726824       0.34821153       0.37303882 </v>
   <v>      -0.12737456       0.40894525      -0.33505168 </v>
   <v>      -0.11294400       0.40741838      -0.38350393 </v>
   <v>      -0.18037679       0.39165598       0.45332601 </v>
   <v>      -0.28729083       0.24639491       0.41859817 </v>
   <v>      -0.34371287       0.18754831      -0.49517113 </v>
   <v>      -0.37482943       0.16316593      -0.44304812 </v>
   <v>      -0.21633851       0.32250480       0.42303481 </v>
   <v>      -0.37769329       0.14427283      -0.33893240 </v>
   <v>      -0.32329511       0.20781002       0.35757567 </v>
   <v>      -0.15752874       0.38394916      -0.49274451 </v>
   <v>      -0.17388679       0.35793073       0.36624007 </v>
   <v>      -0.35586233       0.20687926       0.45084008 </v>
   <v>      -0.32133029       0.23121915       0.39699431 </v>
   <v>      -0.20030801       0.35611991       0.39980099 </v>
   <v>      -0.22509908       0.35900411       0.36877860 </v>
   <v>      -0.32551350       0.25761078       0.37283799 </v>
  </varray>
 </structure>
 <varray name="primitive_index" >
  <v type="int" >        1 </v>
  <v type="int" >      109 </v>
  <v type="int" >      110 </v>
  <v type="int" >      111 </v>
  <v type="int" >       14 </v>
  <v type="int" >       13 </v>
  <v type="int" >      112 </v>
  <v type="int" >       26 </v>
  <v type="int" >      138 </v>
  <v type="int" >       11 </v>
  <v type="int" >       25 </v>
  <v type="int" >       10 </v>
  <v type="int" >       39 </v>
  <v type="int" >       80 </v>
  <v type="int" >       74 </v>
  <v type="int" >      139 </v>
  <v type="int" >      135 </v>
  <v type="int" >       48 </v>
  <v type="int" >      134 </v>
  <v type="int" >      129 </v>
  <v type="int" >      165 </v>
  <v type="int" >       76 </v>
  <v type="int" >      169 </v>
  <v type="int" >       21 </v>
  <v type="int" >      127 </v>
  <v type="int" >       40 </v>
  <v type="int" >      166 </v>
  <v type="int" >       33 </v>
  <v type="int" >      162 </v>
  <v type="int" >       82 </v>
  <v type="int" >       41 </v>
  <v type="int" >       81 </v>
  <v type="int" >       94 </v>
  <v type="int" >      122 </v>
  <v type="int" >       75 </v>
  <v type="int" >       34 </v>
  <v type="int" >      124 </v>
  <v type="int" >       55 </v>
  <v type="int" >      159 </v>
  <v type="int" >      126 </v>
  <v type="int" >      167 </v>
  <v type="int" >      163 </v>
  <v type="int" >      182 </v>
  <v type="int" >       35 </v>
  <v type="int" >      150 </v>
  <v type="int" >       96 </v>
  <v type="int" >       56 </v>
  <v type="int" >      125 </v>
  <v type="int" >      121 </v>
  <v type="int" >      179 </v>
  <v type="int" >      148 </v>
  <v type="int" >       37 </v>
  <v type="int" >      120 </v>
  <v type="int" >       73 </v>
  <v type="int" >       95 </v>
  <v type="int" >       77 </v>
  <v type="int" >      128 </v>
  <v type="int" >      164 </v>
  <v type="int" >      168 </v>
  <v type="int" >       71 </v>
  <v type="int" >       79 </v>
  <v type="int" >       57 </v>
  <v type="int" >       38 </v>
  <v type="int" >      123 </v>
  <v type="int" >       32 </v>
  <v type="int" >       31 </v>
  <v type="int" >        8 </v>
  <v type="int" >       36 </v>
  <v type="int" >      180 </v>
  <v type="int" >       78 </v>
  <v type="int" >       72 </v>
  <v type="int" >      147 </v>
  <v type="int" >        7 </v>
  <v type="int" >       27 </v>
  <v type="int" >       29 </v>
  <v type="int" >       30 </v>
  <v type="int" >      146 </v>
  <v type="int" >      118 </v>
  <v type="int" >      115 </v>
  <v type="int" >       91 </v>
  <v type="int" >      181 </v>
  <v type="int" >       93 </v>
  <v type="int" >       53 </v>
  <v type="int" >      149 </v>
  <v type="int" >       54 </v>
  <v type="int" >       92 </v>
  <v type="int" >       18 </v>
  <v type="int" >       52 </v>
  <v type="int" >      117 </v>
  <v type="int" >      114 </v>
  <v type="int" >       51 </v>
  <v type="int" >        5 </v>
  <v type="int" >      144 </v>
  <v type="int" >       12 </v>
  <v type="int" >        3 </v>
  <v type="int" >        6 </v>
  <v type="int" >      137 </v>
  <v type="int" >       89 </v>
  <v type="int" >      143 </v>
  <v type="int" >      136 </v>
  <v type="int" >      113 </v>
  <v type="int" >      116 </v>
  <v type="int" >      175 </v>
  <v type="int" >       49 </v>
  <v type="int" >       16 </v>
  <v type="int" >        4 </v>
  <v type="int" >       70 </v>
  <v type="int" >        2 </v>
  <v type="int" >       17 </v>
  <v type="int" >      140 </v>
  <v type="int" >       28 </v>
  <v type="int" >      160 </v>
  <v type="int" >      119 </v>
  <v type="int" >       61 </v>
  <v type="int" >       63 </v>
  <v type="int" >       19 </v>
  <v type="int" >      142 </v>
  <v type="int" >       65 </v>
  <v type="int" >      141 </v>
  <v type="int" >       24 </v>
  <v type="int" >        9 </v>
  <v type="int" >      154 </v>
  <v type="int" >       90 </v>
  <v type="int" >       45 </v>
  <v type="int" >       22 </v>
  <v type="int" >       43 </v>
  <v type="int" >       47 </v>
  <v type="int" >       15 </v>
  <v type="int" >       50 </v>
  <v type="int" >      176 </v>
  <v type="int" >      177 </v>
  <v type="int" >      100 </v>
  <v type="int" >       62 </v>
  <v type="int" >       66 </v>
  <v type="int" >      157 </v>
  <v type="int" >      101 </v>
  <v type="int" >      145 </v>
  <v type="int" >      133 </v>
  <v type="int" >      151 </v>
  <v type="int" >      103 </v>
  <v type="int" >       86 </v>
  <v type="int" >       83 </v>
  <v type="int" >      105 </v>
  <v type="int" >      188 </v>
  <v type="int" >      161 </v>
  <v type="int" >       85 </v>
  <v type="int" >      187 </v>
  <v type="int" >      132 </v>
  <v type="int" >       64 </v>
  <v type="int" >       87 </v>
  <v type="int" >       44 </v>
  <v type="int" >      170 </v>
  <v type="int" >       46 </v>
  <v type="int" >      185 </v>
  <v type="int" >      156 </v>
  <v type="int" >      191 </v>
  <v type="int" >       67 </v>
  <v type="int" >      130 </v>
  <v type="int" >      173 </v>
  <v type="int" >       20 </v>
  <v type="int" >      174 </v>
  <v type="int" >       69 </v>
  <v type="int" >       42 </v>
  <v type="int" >       59 </v>
  <v type="int" >      189 </v>
  <v type="int" >      131 </v>
  <v type="int" >       23 </v>
  <v type="int" >      172 </v>
  <v type="int" >      152 </v>
  <v type="int" >      102 </v>
  <v type="int" >       60 </v>
  <v type="int" >      171 </v>
  <v type="int" >      158 </v>
  <v type="int" >      104 </v>
  <v type="int" >       84 </v>
  <v type="int" >       88 </v>
  <v type="int" >       58 </v>
  <v type="int" >      153 </v>
  <v type="int" >      184 </v>
  <v type="int" >      106 </v>
  <v type="int" >      178 </v>
  <v type="int" >      155 </v>
  <v type="int" >       97 </v>
  <v type="int" >       68 </v>
  <v type="int" >      107 </v>
  <v type="int" >      183 </v>
  <v type="int" >       99 </v>
  <v type="int" >      190 </v>
  <v type="int" >      192 </v>
  <v type="int" >      186 </v>
  <v type="int" >       98 </v>
  <v type="int" >      108 </v>
 </varray>
 <kpoints>
  <generation param="listgenerated">
   <i name="divisions" type="int">      20 </i>
   <v>       0.00000000       0.00000000       0.00000000 </v>
   <v>       0.50000000       0.00000000       0.00000000 </v>
   <v>       0.33333333       0.33333333       0.00000000 </v>
   <v>       0.00000000       0.00000000       0.00000000 </v>
  </generation>
  <varray name="kpointlist" >
   <v>       0.00000000       0.00000000       0.00000000 </v>
   <v>       0.02631579       0.00000000       0.00000000 </v>
   <v>       0.05263158       0.00000000       0.00000000 </v>
   <v>       0.07894737       0.00000000       0.00000000 </v>
   <v>       0.10526316       0.00000000       0.00000000 </v>
   <v>       0.13157895       0.00000000       0.00000000 </v>
   <v>       0.15789474       0.00000000       0.00000000 </v>
   <v>       0.18421053       0.00000000       0.00000000 </v>
   <v>       0.21052632       0.00000000       0.00000000 </v>
   <v>       0.23684211       0.00000000       0.00000000 </v>
   <v>       0.26315789       0.00000000       0.00000000 </v>
   <v>       0.28947368       0.00000000       0.00000000 </v>
   <v>       0.31578947       0.00000000       0.00000000 </v>
   <v>       0.34210526       0.00000000       0.00000000 </v>
   <v>       0.36842105       0.00000000       0.00000000 </v>
   <v>       0.39473684       0.00000000       0.00000000 </v>
   <v>       0.42105263       0.00000000       0.00000000 </v>
   <v>       0.44736842       0.00000000       0.00000000 </v>
   <v>       0.47368421       0.00000000       0.00000000 </v>
   <v>       0.50000000       0.00000000       0.00000000 </v>
   <v>       0.50000000       0.00000000       0.00000000 </v>
   <v>       0.49122807       0.01754386       0.00000000 </v>
   <v>       0.48245614       0.03508772       0.00000000 </v>
   <v>       0.47368421       0.05263158       0.00000000 </v>
   <v>       0.46491228       0.07017544       0.00000000 </v>
   <v>       0.45614035       0.08771930       0.00000000 </v>
   <v>       0.44736842       0.10526316       0.00000000 </v>
   <v>       0.43859649       0.12280702       0.00000000 </v>
   <v>       0.42982456       0.14035088       0.00000000 </v>
   <v>       0.42105263       0.15789474       0.00000000 </v>
   <v>       0.41228070       0.17543860       0.00000000 </v>
   <v>       0.40350877       0.19298246       0.00000000 </v>
   <v>       0.39473684       0.21052632       0.00000000 </v>
   <v>       0.38596491       0.22807018       0.00000000 </v>
   <v>       0.37719298       0.24561404       0.00000000 </v>
   <v>       0.36842105       0.26315789       0.00000000 </v>
   <v>       0.35964912       0.28070175       0.00000000 </v>
   <v>       0.35087719       0.29824561       0.00000000 </v>
   <v>       0.34210526       0.31578947       0.00000000 </v>
   <v>       0.33333333       0.33333333       0.00000000 </v>
   <v>       0.33333333       0.33333333       0.00000000 </v>
   <v>       0.31578947       0.31578947       0.00000000 </v>
   <v>       0.29824561       0.29824561       0.00000000 </v>
   <v>       0.28070175       0.28070175       0.00000000 </v>
   <v>       0.26315789       0.26315789       0.00000000 </v>
   <v>       0.24561404       0.24561404       0.00000000 </v>
   <v>       0.22807018       0.22807018       0.00000000 </v>
   <v>       0.21052632       0.21052632       0.00000000 </v>
   <v>       0.19298246       0.19298246       0.00000000 </v>
   <v>       0.17543860       0.17543860       0.00000000 </v>
   <v>       0.15789474       0.15789474       0.00000000 </v>
   <v>       0.14035088       0.14035088       0.00000000 </v>
   <v>       0.12280702       0.12280702       0.00000000 </v>
   <v>       0.10526316       0.10526316       0.00000000 </v>
   <v>       0.08771930       0.08771930       0.00000000 </v>
   <v>       0.07017544       0.07017544       0.00000000 </v>
   <v>       0.05263158       0.05263158       0.00000000 </v>
   <v>       0.03508772       0.03508772       0.00000000 </v>
   <v>       0.01754386       0.01754386       0.00000000 </v>
   <v>       0.00000000       0.00000000       0.00000000 </v>
  </varray>
  <varray name="weights" >
   <v>       0.01666667 </v>
   <v>       0.01666667 </v>
   <v>       0.01666667 </v>
   <v>       0.01666667 </v>
   <v>       0.01666667 </v>
   <v>       0.01666667 </v>
   <v>       0.01666667 </v>
   <v>       0.01666667 </v>
   <v>       0.01666667 </v>
   <v>       0.01666667 </v>
   <v>       0.01666667 </v>
   <v>       0.01666667 </v>
   <v>       0.01666667 </v>
   <v>       0.01666667 </v>
   <v>       0.01666667 </v>
   <v>       0.01666667 </v>
   <v>       0.01666667 </v>
   <v>       0.01666667 </v>
   <v>       0.01666667 </v>
   <v>       0.01666667 </v>
   <v>       0.01666667 </v>
   <v>       0.01666667 </v>
   <v>       0.01666667 </v>
   <v>       0.01666667 </v>
   <v>       0.01666667 </v>
   <v>       0.01666667 </v>
   <v>       0.01666667 </v>
   <v>       0.01666667 </v>
   <v>       0.01666667 </v>
   <v>       0.01666667 </v>
   <v>       0.01666667 </v>
   <v>       0.01666667 </v>
   <v>       0.01666667 </v>
   <v>       0.01666667 </v>
   <v>       0.01666667 </v>
   <v>       0.01666667 </v>
   <v>       0.01666667 </v>
   <v>       0.01666667 </v>
   <v>       0.01666667 </v>
   <v>       0.01666667 </v>
   <v>       0.01666667 </v>
   <v>       0.01666667 </v>
   <v>       0.01666667 </v>
   <v>       0.01666667 </v>
   <v>       0.01666667 </v>
   <v>       0.01666667 </v>
   <v>       0.01666667 </v>
   <v>       0.01666667 </v>
   <v>       0.01666667 </v>
   <v>       0.01666667 </v>
   <v>       0.01666667 </v>
   <v>       0.01666667 </v>
   <v>       0.01666667 </v>
   <v>       0.01666667 </v>
   <v>       0.01666667 </v>
   <v>       0.01666667 </v>
   <v>       0.01666667 </v>
   <v>       0.01666667 </v>
   <v>       0.01666667 </v>
   <v>       0.01666667 </v>
  </varray>
 </kpoints>
 <parameters>
  <separator name="general" >
   <i type="string" name="SYSTEM">Simulation for cell shape cell volume r</i>
   <i type="logical" name="LCOMPAT"> F  </i>
  </separator>
  <separator name="electronic" >
   <i type="string" name="PREC">high</i>
   <i name="ENMAX">    500.00000000</i>
   <i name="ENAUG">    644.87300000</i>
   <i name="EDIFF">      0.00001000</i>
   <i type="int" name="IALGO">    38</i>
   <i type="int" name="IWAVPR">    10</i>
   <i type="int" name="NBANDS">   368</i>
   <i name="NELECT">    540.00000000</i>
   <i type="int" name="TURBO">     0</i>
   <i type="int" name="IRESTART">     0</i>
   <i type="int" name="NREBOOT">     0</i>
   <i type="int" name="NMIN">     0</i>
   <i name="EREF">      0.00000000</i>
   <separator name="electronic smearing" >
    <i type="int" name="ISMEAR">     0</i>
    <i name="SIGMA">      0.01000000</i>
    <i name="KSPACING">      0.50000000</i>
    <i type="logical" name="KGAMMA"> T  </i>
   </separator>
   <separator name="electronic projectors" >
    <i type="logical" name="LREAL"> T  </i>
    <v name="ROPT">     -0.00040000     -0.00040000     -0.00040000</v>
    <i type="int" name="LMAXPAW">  -100</i>
    <i type="int" name="LMAXMIX">     2</i>
    <i type="logical" name="NLSPLINE"> F  </i>
   </separator>
   <separator name="electronic startup" >
    <i type="int" name="ISTART">     1</i>
    <i type="int" name="ICHARG">    11</i>
    <i type="int" name="INIWAV">     1</i>
   </separator>
   <separator name="electronic spin" >
    <i type="int" name="ISPIN">     1</i>
    <i type="logical" name="LNONCOLLINEAR"> F  </i>
    <v name="MAGMOM">      1.00000000      1.00000000      1.00000000      1.00000000      1.00000000      1.00000000      1.00000000      1.00000000      1.00000000      1.00000000      1.00000000      1.00000000      1.00000000      1.00000000      1.00000000      1.00000000      1.00000000      1.00000000      1.00000000      1.00000000
      1.00000000      1.00000000      1.00000000      1.00000000      1.00000000      1.00000000      1.00000000      1.00000000      1.00000000      1.00000000      1.00000000      1.00000000      1.00000000      1.00000000      1.00000000      1.00000000      1.00000000      1.00000000      1.00000000      1.00000000
      1.00000000      1.00000000      1.00000000      1.00000000      1.00000000      1.00000000      1.00000000      1.00000000      1.00000000      1.00000000      1.00000000      1.00000000      1.00000000      1.00000000      1.00000000      1.00000000      1.00000000      1.00000000      1.00000000      1.00000000
      1.00000000      1.00000000      1.00000000      1.00000000      1.00000000      1.00000000      1.00000000      1.00000000      1.00000000      1.00000000      1.00000000      1.00000000      1.00000000      1.00000000      1.00000000      1.00000000      1.00000000      1.00000000      1.00000000      1.00000000
      1.00000000      1.00000000      1.00000000      1.00000000      1.00000000      1.00000000      1.00000000      1.00000000      1.00000000      1.00000000      1.00000000      1.00000000      1.00000000      1.00000000      1.00000000      1.00000000      1.00000000      1.00000000      1.00000000      1.00000000
      1.00000000      1.00000000      1.00000000      1.00000000      1.00000000      1.00000000      1.00000000      1.00000000      1.00000000      1.00000000      1.00000000      1.00000000      1.00000000      1.00000000      1.00000000      1.00000000      1.00000000      1.00000000      1.00000000      1.00000000
      1.00000000      1.00000000      1.00000000      1.00000000      1.00000000      1.00000000      1.00000000      1.00000000      1.00000000      1.00000000      1.00000000      1.00000000      1.00000000      1.00000000      1.00000000      1.00000000      1.00000000      1.00000000      1.00000000      1.00000000
      1.00000000      1.00000000      1.00000000      1.00000000      1.00000000      1.00000000      1.00000000      1.00000000      1.00000000      1.00000000      1.00000000      1.00000000      1.00000000      1.00000000      1.00000000      1.00000000      1.00000000      1.00000000      1.00000000      1.00000000
      1.00000000      1.00000000      1.00000000      1.00000000      1.00000000      1.00000000      1.00000000      1.00000000      1.00000000      1.00000000      1.00000000      1.00000000      1.00000000      1.00000000      1.00000000      1.00000000      1.00000000      1.00000000      1.00000000      1.00000000
      1.00000000      1.00000000      1.00000000      1.00000000      1.00000000      1.00000000      1.00000000      1.00000000      1.00000000      1.00000000      1.00000000      1.00000000</v>
    <i name="NUPDOWN">     -1.00000000</i>
    <i type="logical" name="LSORBIT"> F  </i>
    <v name="SAXIS">      0.00000000      0.00000000      1.00000000</v>
    <i type="logical" name="LSPIRAL"> F  </i>
    <v name="QSPIRAL">      0.00000000      0.00000000      0.00000000</v>
    <i type="logical" name="LZEROZ"> F  </i>
   </separator>
   <separator name="electronic exchange-correlation" >
    <i type="logical" name="LASPH"> F  </i>
    <i type="logical" name="LMETAGGA"> F  </i>
   </separator>
   <separator name="electronic convergence" >
    <i type="int" name="NELM">   200</i>
    <i type="int" name="NELMDL">     0</i>
    <i type="int" name="NELMIN">     2</i>
    <i name="ENINI">    500.00000000</i>
    <separator name="electronic convergence detail" >
     <i type="logical" name="LDIAG"> T  </i>
     <i type="logical" name="LSUBROT"> F  </i>
     <i name="WEIMIN">      0.00000000</i>
     <i name="EBREAK">      0.00000001</i>
     <i name="DEPER">      0.30000000</i>
     <i type="int" name="NRMM">     4</i>
     <i name="TIME">      0.40000000</i>
    </separator>
   </separator>
   <separator name="electronic mixer" >
    <i name="AMIX">      0.40000000</i>
    <i name="BMIX">      1.00000000</i>
    <i name="AMIN">      0.10000000</i>
    <i name="AMIX_MAG">      1.60000000</i>
    <i name="BMIX_MAG">      1.00000000</i>
    <separator name="electronic mixer details" >
     <i type="int" name="IMIX">     4</i>
     <i type="logical" name="MIXFIRST"> F  </i>
     <i type="int" name="MAXMIX">   -45</i>
     <i name="WC">    100.00000000</i>
     <i type="int" name="INIMIX">     1</i>
     <i type="int" name="MIXPRE">     1</i>
     <i type="int" name="MREMOVE">     5</i>
    </separator>
   </separator>
   <separator name="electronic dipolcorrection" >
    <i type="logical" name="LDIPOL"> F  </i>
    <i type="logical" name="LMONO"> F  </i>
    <i type="int" name="IDIPOL">     0</i>
    <i name="EPSILON">      1.00000000</i>
    <v name="DIPOL">   -100.00000000   -100.00000000   -100.00000000</v>
    <i name="EFIELD">      0.00000000</i>
   </separator>
  </separator>
  <separator name="grids" >
   <i type="int" name="NGX">   250</i>
   <i type="int" name="NGY">   250</i>
   <i type="int" name="NGZ">   150</i>
   <i type="int" name="NGXF">   378</i>
   <i type="int" name="NGYF">   378</i>
   <i type="int" name="NGZF">   224</i>
   <i type="logical" name="ADDGRID"> F  </i>
  </separator>
  <separator name="ionic" >
   <i type="int" name="NSW">     0</i>
   <i type="int" name="IBRION">    -1</i>
   <i type="int" name="MDALGO">     0</i>
   <i type="int" name="ISIF">     2</i>
   <i name="PSTRESS">      0.00000000</i>
   <i name="EDIFFG">     -0.01000000</i>
   <i type="int" name="NFREE">     0</i>
   <i name="POTIM">      0.30000000</i>
   <i name="SMASS">     -3.00000000</i>
   <i name="SCALEE">      1.00000000</i>
  </separator>
  <separator name="ionic md" >
   <i name="TEBEG">      0.00010000</i>
   <i name="TEEND">      0.00010000</i>
   <i type="int" name="NBLOCK">     1</i>
   <i type="int" name="KBLOCK">     1</i>
   <i type="int" name="NPACO">   256</i>
   <i name="APACO">     16.00000000</i>
  </separator>
  <separator name="symmetry" >
   <i type="int" name="ISYM">     2</i>
   <i name="SYMPREC">      0.00001000</i>
  </separator>
  <separator name="dos" >
   <i type="int" name="LORBIT">     0</i>
   <v name="RWIGS">     -1.00000000     -1.00000000     -1.00000000</v>
   <i type="int" name="NEDOS">   301</i>
   <i name="EMIN">     10.00000000</i>
   <i name="EMAX">    -10.00000000</i>
   <i name="EFERMI">      0.00000000</i>
  </separator>
  <separator name="writing" >
   <i type="int" name="NWRITE">     0</i>
   <i type="logical" name="LWAVE"> T  </i>
   <i type="logical" name="LDOWNSAMPLE"> F  </i>
   <i type="logical" name="LCHARG"> T  </i>
   <i type="logical" name="LPARD"> F  </i>
   <i type="logical" name="LVTOT"> F  </i>
   <i type="logical" name="LVHAR"> F  </i>
   <i type="logical" name="LELF"> F  </i>
   <i type="logical" name="LOPTICS"> F  </i>
   <v name="STM">      0.00000000      0.00000000      0.00000000      0.00000000      0.00000000      0.00000000      0.00000000</v>
  </separator>
  <separator name="performance" >
   <i type="int" name="NPAR">    16</i>
   <i type="int" name="NSIM">     4</i>
   <i type="int" name="NBLK">    -1</i>
   <i type="logical" name="LPLANE"> T  </i>
   <i type="logical" name="LSCALAPACK"> T  </i>
   <i type="logical" name="LSCAAWARE"> F  </i>
   <i type="logical" name="LSCALU"> F  </i>
   <i type="logical" name="LASYNC"> F  </i>
   <i type="logical" name="LORBITALREAL"> F  </i>
  </separator>
  <separator name="miscellaneous" >
   <i type="int" name="IDIOT">     3</i>
   <i type="int" name="ISPECIAL">     0</i>
   <i type="logical" name="LMUSIC"> F  </i>
   <v name="POMASS">     14.00100000      1.00000000     12.01100000</v>
   <v name="DARWINR">      0.00000000      0.00000000      0.00000000</v>
   <v name="DARWINV">      1.00000000      1.00000000      1.00000000</v>
   <i type="logical" name="LCORR"> T  </i>
  </separator>
  <i type="logical" name="GGA_COMPAT"> T  </i>
  <i type="logical" name="LBERRY"> F  </i>
  <i type="int" name="ICORELEVEL">     0</i>
  <i type="logical" name="LDAU"> F  </i>
  <i type="int" name="I_CONSTRAINED_M">     0</i>
  <separator name="electronic exchange-correlation" >
   <i type="string" name="GGA">PE</i>
   <i type="int" name="VOSKOWN">     0</i>
   <i type="logical" name="LHFCALC"> F  </i>
   <i type="string" name="PRECFOCK"></i>
   <i type="logical" name="LSYMGRAD"> F  </i>
   <i type="logical" name="LHFONE"> F  </i>
   <i type="logical" name="LRHFCALC"> F  </i>
   <i type="logical" name="LTHOMAS"> F  </i>
   <i type="logical" name="LMODELHF"> F  </i>
   <i name="ENCUT4O">     -1.00000000</i>
   <i type="int" name="EXXOEP">     0</i>
   <i type="int" name="FOURORBIT">     0</i>
   <i name="AEXX">      0.00000000</i>
   <i name="HFALPHA">      0.00000000</i>
   <i name="MCALPHA">      0.00000000</i>
   <i name="ALDAX">      1.00000000</i>
   <i name="AGGAX">      1.00000000</i>
   <i name="ALDAC">      1.00000000</i>
   <i name="AGGAC">      1.00000000</i>
   <i type="int" name="NKREDX">     1</i>
   <i type="int" name="NKREDY">     1</i>
   <i type="int" name="NKREDZ">     1</i>
   <i type="logical" name="SHIFTRED"> F  </i>
   <i type="logical" name="ODDONLY"> F  </i>
   <i type="logical" name="EVENONLY"> F  </i>
   <i type="int" name="LMAXFOCK">     0</i>
   <i type="int" name="NMAXFOCKAE">     0</i>
   <i type="logical" name="LFOCKAEDFT"> F  </i>
   <i name="HFSCREEN">      0.00000000</i>
   <i name="HFSCREENC">      0.00000000</i>
   <i type="int" name="NBANDSGWLOW">     0</i>
  </separator>
  <separator name="vdW DFT" >
   <i type="logical" name="LUSE_VDW"> F  </i>
   <i name="Zab_VDW">     -0.84910000</i>
   <i name="PARAM1">      0.12340000</i>
   <i name="PARAM2">      1.00000000</i>
   <i name="PARAM3">      0.00000000</i>
  </separator>
  <separator name="model GW" >
   <i type="int" name="MODEL_GW">     0</i>
   <i name="MODEL_EPS0">     63.39410533</i>
   <i name="MODEL_ALPHA">      1.00000000</i>
  </separator>
  <separator name="linear response parameters" >
   <i type="logical" name="LEPSILON"> F  </i>
   <i type="logical" name="LRPA"> F  </i>
   <i type="logical" name="LNABLA"> F  </i>
   <i type="logical" name="LVEL"> F  </i>
   <i type="int" name="KINTER">     0</i>
   <i name="CSHIFT">      0.10000000</i>
   <i name="OMEGAMAX">     -1.00000000</i>
   <i name="DEG_THRESHOLD">      0.00200000</i>
   <i name="RTIME">     -0.10000000</i>
   <i name="WPLASMAI">      0.00000000</i>
   <v name="DFIELD">      0.00000000      0.00000000      0.00000000</v>
   <v name="WPLASMA">      0.00000000      0.00000000      0.00000000      0.00000000      0.00000000      0.00000000      0.00000000      0.00000000      0.00000000</v>
  </separator>
  <separator name="orbital magnetization" >
   <i type="logical" name="NUCIND"> F  </i>
   <v name="MAGPOS">      0.00000000      0.00000000      0.00000000</v>
   <i type="logical" name="LNICSALL"> T  </i>
   <i type="logical" name="ORBITALMAG"> F  </i>
   <i type="logical" name="LMAGBLOCH"> F  </i>
   <i type="logical" name="LCHIMAG"> F  </i>
   <i type="logical" name="LGAUGE"> T  </i>
   <i type="int" name="MAGATOM">     0</i>
   <v name="MAGDIPOL">      0.00000000      0.00000000      0.00000000</v>
   <v name="AVECCONST">      0.00000000      0.00000000      0.00000000</v>
  </separator>
  <separator name="response functions" >
   <i type="logical" name="LADDER"> F  </i>
   <i type="logical" name="LRPAFORCE"> F  </i>
   <i type="logical" name="LFXC"> F  </i>
   <i type="logical" name="LHARTREE"> T  </i>
   <i type="int" name="IBSE">     0</i>
   <v type="int" name="KPOINT">    -1     0     0     0</v>
   <i type="logical" name="LTCTE"> F  </i>
   <i type="logical" name="LTETE"> F  </i>
   <i type="logical" name="LTRIPLET"> F  </i>
   <i type="logical" name="LFXCEPS"> F  </i>
   <i type="logical" name="LFXHEG"> F  </i>
   <i type="int" name="NATURALO">     2</i>
   <i type="logical" name="L2ORDER"> F  </i>
   <i type="logical" name="LMP2LT"> F  </i>
   <i type="logical" name="LUSEW"> F  </i>
   <i name="ENCUTGW">     -2.00000000</i>
   <i name="ENCUTGWSOFT">     -2.00000000</i>
   <i name="ENCUTLF">     -1.00000000</i>
   <i type="int" name="LMAXMP2">    -1</i>
   <i name="SCISSOR">      0.00000000</i>
   <i type="int" name="NOMEGA">     0</i>
   <i type="int" name="NOMEGAR">     0</i>
   <i type="int" name="NBANDSGW">    -1</i>
   <i type="int" name="NBANDSO">    -1</i>
   <i type="int" name="NBANDSV">    -1</i>
   <i type="int" name="NELM">   200</i>
   <i type="int" name="NELMHF">     1</i>
   <i type="int" name="DIM">     3</i>
   <i type="int" name="ANTIRES">     0</i>
   <i name="OMEGAMAX">    -30.00000000</i>
   <i name="OMEGAMIN">    -30.00000000</i>
   <i name="OMEGATL">   -200.00000000</i>
   <i type="int" name="OMEGAGRID">   140</i>
   <i name="CSHIFT">     -0.10000000</i>
   <i type="logical" name="SELFENERGY"> F  </i>
   <i type="logical" name="LSPECTRAL"> F  </i>
   <i type="logical" name="LSPECTRALGW"> F  </i>
   <i type="logical" name="LSINGLES"> F  </i>
   <i type="logical" name="LFERMIGW"> F  </i>
   <i type="logical" name="ODDONLYGW"> F  </i>
   <i type="logical" name="EVENONLYGW"> F  </i>
   <i type="int" name="NKREDLFX">     1</i>
   <i type="int" name="NKREDLFY">     1</i>
   <i type="int" name="NKREDLFZ">     1</i>
   <i type="int" name="MAXMEM">  2800</i>
   <i type="int" name="TELESCOPE">     0</i>
   <i type="int" name="TAUPAR">     1</i>
   <i type="int" name="OMEGAPAR">    -1</i>
   <i name="LAMBDA">      1.00000000</i>
  </separator>
  <separator name="External order field" >
   <i name="OFIELD_KAPPA">      0.00000000</i>
   <v name="OFIELD_K">      0.00000000      0.00000000      0.00000000</v>
   <i name="OFIELD_Q6_NEAR">      0.00000000</i>
   <i name="OFIELD_Q6_FAR">      0.00000000</i>
   <i name="OFIELD_A">      0.00000000</i>
  </separator>
  <separator name="solvation model" >
   <i type="logical" name="LSOL"> F  </i>
  </separator>
 </parameters>
 <atominfo>
  <atoms>     192 </atoms>
  <types>       3 </types>
  <array name="atoms" >
   <dimension dim="1">ion</dimension>
   <field type="string">element</field>
   <field type="int">atomtype</field>
   <set>
    <rc><c>N </c><c>   1</c></rc>
    <rc><c>N </c><c>   1</c></rc>
    <rc><c>N </c><c>   1</c></rc>
    <rc><c>N </c><c>   1</c></rc>
    <rc><c>N </c><c>   1</c></rc>
    <rc><c>N </c><c>   1</c></rc>
    <rc><c>N </c><c>   1</c></rc>
    <rc><c>N </c><c>   1</c></rc>
    <rc><c>N </c><c>   1</c></rc>
    <rc><c>N </c><c>   1</c></rc>
    <rc><c>N </c><c>   1</c></rc>
    <rc><c>N </c><c>   1</c></rc>
    <rc><c>N </c><c>   1</c></rc>
    <rc><c>N </c><c>   1</c></rc>
    <rc><c>N </c><c>   1</c></rc>
    <rc><c>N </c><c>   1</c></rc>
    <rc><c>N </c><c>   1</c></rc>
    <rc><c>N </c><c>   1</c></rc>
    <rc><c>N </c><c>   1</c></rc>
    <rc><c>N </c><c>   1</c></rc>
    <rc><c>N </c><c>   1</c></rc>
    <rc><c>N </c><c>   1</c></rc>
    <rc><c>N </c><c>   1</c></rc>
    <rc><c>N </c><c>   1</c></rc>
    <rc><c>H </c><c>   2</c></rc>
    <rc><c>H </c><c>   2</c></rc>
    <rc><c>H </c><c>   2</c></rc>
    <rc><c>H </c><c>   2</c></rc>
    <rc><c>H </c><c>   2</c></rc>
    <rc><c>H </c><c>   2</c></rc>
    <rc><c>H </c><c>   2</c></rc>
    <rc><c>H </c><c>   2</c></rc>
    <rc><c>H </c><c>   2</c></rc>
    <rc><c>H </c><c>   2</c></rc>
    <rc><c>H </c><c>   2</c></rc>
    <rc><c>H </c><c>   2</c></rc>
    <rc><c>H </c><c>   2</c></rc>
    <rc><c>H </c><c>   2</c></rc>
    <rc><c>H </c><c>   2</c></rc>
    <rc><c>H </c><c>   2</c></rc>
    <rc><c>H </c><c>   2</c></rc>
    <rc><c>H </c><c>   2</c></rc>
    <rc><c>H </c><c>   2</c></rc>
    <rc><c>H </c><c>   2</c></rc>
    <rc><c>H </c><c>   2</c></rc>
    <rc><c>H </c><c>   2</c></rc>
    <rc><c>H </c><c>   2</c></rc>
    <rc><c>H </c><c>   2</c></rc>
    <rc><c>H </c><c>   2</c></rc>
    <rc><c>H </c><c>   2</c></rc>
    <rc><c>H </c><c>   2</c></rc>
    <rc><c>H </c><c>   2</c></rc>
    <rc><c>H </c><c>   2</c></rc>
    <rc><c>H </c><c>   2</c></rc>
    <rc><c>H </c><c>   2</c></rc>
    <rc><c>H </c><c>   2</c></rc>
    <rc><c>H </c><c>   2</c></rc>
    <rc><c>H </c><c>   2</c></rc>
    <rc><c>H </c><c>   2</c></rc>
    <rc><c>H </c><c>   2</c></rc>
    <rc><c>H </c><c>   2</c></rc>
    <rc><c>H </c><c>   2</c></rc>
    <rc><c>H </c><c>   2</c></rc>
    <rc><c>H </c><c>   2</c></rc>
    <rc><c>H </c><c>   2</c></rc>
    <rc><c>H </c><c>   2</c></rc>
    <rc><c>H </c><c>   2</c></rc>
    <rc><c>H </c><c>   2</c></rc>
    <rc><c>H </c><c>   2</c></rc>
    <rc><c>H </c><c>   2</c></rc>
    <rc><c>H </c><c>   2</c></rc>
    <rc><c>H </c><c>   2</c></rc>
    <rc><c>H </c><c>   2</c></rc>
    <rc><c>H </c><c>   2</c></rc>
    <rc><c>H </c><c>   2</c></rc>
    <rc><c>H </c><c>   2</c></rc>
    <rc><c>H </c><c>   2</c></rc>
    <rc><c>H </c><c>   2</c></rc>
    <rc><c>H </c><c>   2</c></rc>
    <rc><c>H </c><c>   2</c></rc>
    <rc><c>H </c><c>   2</c></rc>
    <rc><c>H </c><c>   2</c></rc>
    <rc><c>H </c><c>   2</c></rc>
    <rc><c>H </c><c>   2</c></rc>
    <rc><c>H </c><c>   2</c></rc>
    <rc><c>H </c><c>   2</c></rc>
    <rc><c>H </c><c>   2</c></rc>
    <rc><c>H </c><c>   2</c></rc>
    <rc><c>H </c><c>   2</c></rc>
    <rc><c>H </c><c>   2</c></rc>
    <rc><c>H </c><c>   2</c></rc>
    <rc><c>H </c><c>   2</c></rc>
    <rc><c>H </c><c>   2</c></rc>
    <rc><c>H </c><c>   2</c></rc>
    <rc><c>H </c><c>   2</c></rc>
    <rc><c>H </c><c>   2</c></rc>
    <rc><c>H </c><c>   2</c></rc>
    <rc><c>H </c><c>   2</c></rc>
    <rc><c>H </c><c>   2</c></rc>
    <rc><c>H </c><c>   2</c></rc>
    <rc><c>H </c><c>   2</c></rc>
    <rc><c>H </c><c>   2</c></rc>
    <rc><c>H </c><c>   2</c></rc>
    <rc><c>H </c><c>   2</c></rc>
    <rc><c>H </c><c>   2</c></rc>
    <rc><c>H </c><c>   2</c></rc>
    <rc><c>H </c><c>   2</c></rc>
    <rc><c>H </c><c>   2</c></rc>
    <rc><c>C </c><c>   3</c></rc>
    <rc><c>C </c><c>   3</c></rc>
    <rc><c>C </c><c>   3</c></rc>
    <rc><c>C </c><c>   3</c></rc>
    <rc><c>C </c><c>   3</c></rc>
    <rc><c>C </c><c>   3</c></rc>
    <rc><c>C </c><c>   3</c></rc>
    <rc><c>C </c><c>   3</c></rc>
    <rc><c>C </c><c>   3</c></rc>
    <rc><c>C </c><c>   3</c></rc>
    <rc><c>C </c><c>   3</c></rc>
    <rc><c>C </c><c>   3</c></rc>
    <rc><c>C </c><c>   3</c></rc>
    <rc><c>C </c><c>   3</c></rc>
    <rc><c>C </c><c>   3</c></rc>
    <rc><c>C </c><c>   3</c></rc>
    <rc><c>C </c><c>   3</c></rc>
    <rc><c>C </c><c>   3</c></rc>
    <rc><c>C </c><c>   3</c></rc>
    <rc><c>C </c><c>   3</c></rc>
    <rc><c>C </c><c>   3</c></rc>
    <rc><c>C </c><c>   3</c></rc>
    <rc><c>C </c><c>   3</c></rc>
    <rc><c>C </c><c>   3</c></rc>
    <rc><c>C </c><c>   3</c></rc>
    <rc><c>C </c><c>   3</c></rc>
    <rc><c>C </c><c>   3</c></rc>
    <rc><c>C </c><c>   3</c></rc>
    <rc><c>C </c><c>   3</c></rc>
    <rc><c>C </c><c>   3</c></rc>
    <rc><c>C </c><c>   3</c></rc>
    <rc><c>C </c><c>   3</c></rc>
    <rc><c>C </c><c>   3</c></rc>
    <rc><c>C </c><c>   3</c></rc>
    <rc><c>C </c><c>   3</c></rc>
    <rc><c>C </c><c>   3</c></rc>
    <rc><c>C </c><c>   3</c></rc>
    <rc><c>C </c><c>   3</c></rc>
    <rc><c>C </c><c>   3</c></rc>
    <rc><c>C </c><c>   3</c></rc>
    <rc><c>C </c><c>   3</c></rc>
    <rc><c>C </c><c>   3</c></rc>
    <rc><c>C </c><c>   3</c></rc>
    <rc><c>C </c><c>   3</c></rc>
    <rc><c>C </c><c>   3</c></rc>
    <rc><c>C </c><c>   3</c></rc>
    <rc><c>C </c><c>   3</c></rc>
    <rc><c>C </c><c>   3</c></rc>
    <rc><c>C </c><c>   3</c></rc>
    <rc><c>C </c><c>   3</c></rc>
    <rc><c>C </c><c>   3</c></rc>
    <rc><c>C </c><c>   3</c></rc>
    <rc><c>C </c><c>   3</c></rc>
    <rc><c>C </c><c>   3</c></rc>
    <rc><c>C </c><c>   3</c></rc>
    <rc><c>C </c><c>   3</c></rc>
    <rc><c>C </c><c>   3</c></rc>
    <rc><c>C </c><c>   3</c></rc>
    <rc><c>C </c><c>   3</c></rc>
    <rc><c>C </c><c>   3</c></rc>
    <rc><c>C </c><c>   3</c></rc>
    <rc><c>C </c><c>   3</c></rc>
    <rc><c>C </c><c>   3</c></rc>
    <rc><c>C </c><c>   3</c></rc>
    <rc><c>C </c><c>   3</c></rc>
    <rc><c>C </c><c>   3</c></rc>
    <rc><c>C </c><c>   3</c></rc>
    <rc><c>C </c><c>   3</c></rc>
    <rc><c>C </c><c>   3</c></rc>
    <rc><c>C </c><c>   3</c></rc>
    <rc><c>C </c><c>   3</c></rc>
    <rc><c>C </c><c>   3</c></rc>
    <rc><c>C </c><c>   3</c></rc>
    <rc><c>C </c><c>   3</c></rc>
    <rc><c>C </c><c>   3</c></rc>
    <rc><c>C </c><c>   3</c></rc>
    <rc><c>C </c><c>   3</c></rc>
    <rc><c>C </c><c>   3</c></rc>
    <rc><c>C </c><c>   3</c></rc>
    <rc><c>C </c><c>   3</c></rc>
    <rc><c>C </c><c>   3</c></rc>
    <rc><c>C </c><c>   3</c></rc>
    <rc><c>C </c><c>   3</c></rc>
    <rc><c>C </c><c>   3</c></rc>
   </set>
  </array>
  <array name="atomtypes" >
   <dimension dim="1">type</dimension>
   <field type="int">atomspertype</field>
   <field type="string">element</field>
   <field>mass</field>
   <field>valence</field>
   <field type="string">pseudopotential</field>
   <set>
    <rc><c>  24</c><c>N </c><c>     14.00100000</c><c>      5.00000000</c><c>  PAW_PBE N 08Apr2002                   </c></rc>
    <rc><c>  84</c><c>H </c><c>      1.00000000</c><c>      1.00000000</c><c>  PAW_PBE H 15Jun2001                   </c></rc>
    <rc><c>  84</c><c>C </c><c>     12.01100000</c><c>      4.00000000</c><c>  PAW_PBE C 08Apr2002                   </c></rc>
   </set>
  </array>
 </atominfo>
 <structure name="initialpos" >
  <crystal>
   <varray name="basis" >
    <v>      34.19462338      -0.01383197       0.00000000 </v>
    <v>     -17.10927606      29.66964511       0.00000000 </v>
    <v>       0.00000000       0.00000000      20.00000000 </v>
   </varray>
   <i name="volume">  20286.11370530 </i>
   <varray name="rec_basis" >
    <v>       0.02925119       0.01686797       0.00000000 </v>
    <v>       0.00001364       0.03371235       0.00000000 </v>
    <v>       0.00000000       0.00000000       0.05000000 </v>
   </varray>
  </crystal>
  <varray name="positions" >
   <v>       0.03703085       0.97846360       0.52921300 </v>
   <v>       0.48827169       0.23064525       0.51992094 </v>
   <v>       0.41758821       0.22804000       0.53242142 </v>
   <v>       0.77138614       0.53338110       0.52267365 </v>
   <v>       0.83949671       0.60405810       0.53380818 </v>
   <v>       0.76800760       0.60123099       0.52895765 </v>
   <v>       0.32416109       0.17379356       0.53968339 </v>
   <v>       0.87858206       0.69730387       0.54147812 </v>
   <v>       0.52805293       0.32093612       0.50640204 </v>
   <v>       0.13630559       0.08653103       0.53531586 </v>
   <v>       0.97884233       0.88491334       0.53640947 </v>
   <v>       0.42040214       0.15948325       0.52704435 </v>
   <v>       0.96998454       0.98399589       0.52798440 </v>
   <v>       0.04255031       0.05089625       0.52742594 </v>
   <v>       0.79186531       0.25091691       0.52055286 </v>
   <v>       0.79413029       0.18276656       0.53322062 </v>
   <v>       0.86297655       0.25396646       0.52906110 </v>
   <v>       0.84786465       0.14320607       0.53975368 </v>
   <v>       0.82234881       0.49375895       0.50941669 </v>
   <v>       0.70129676       0.20042477       0.50689242 </v>
   <v>       0.93423648       0.04191513       0.53389302 </v>
   <v>       0.68148557       0.48668610       0.50871896 </v>
   <v>       0.83540406       0.34087813       0.50962948 </v>
   <v>       0.53517904       0.18769774       0.50700662 </v>
   <v>       0.92601741       0.89929129       0.52552989 </v>
   <v>       0.12195008       0.01938507       0.52539529 </v>
   <v>       0.33488358       0.11855332       0.53042103 </v>
   <v>       0.68032098       0.54742884       0.52351928 </v>
   <v>       0.81259170       0.68666303       0.53168243 </v>
   <v>       0.31609091       0.21299398       0.62695709 </v>
   <v>       0.26656059       0.21153642       0.65898858 </v>
   <v>       0.28187497       0.17207781       0.68705970 </v>
   <v>       0.14660075       0.13482766       0.62235973 </v>
   <v>       0.17688529       0.12377583       0.68419409 </v>
   <v>       0.19749307       0.17978310       0.65688543 </v>
   <v>       0.92599987       0.70557815       0.62872239 </v>
   <v>       0.97423203       0.75508707       0.66026422 </v>
   <v>       0.91952969       0.73999528       0.68873221 </v>
   <v>       0.01701763       0.87486052       0.62349669 </v>
   <v>       0.97583491       0.84443361       0.68546017 </v>
   <v>       0.01149232       0.82413310       0.65784304 </v>
   <v>       0.61268770       0.45498070       0.66350409 </v>
   <v>       0.64789847       0.50154090       0.61259330 </v>
   <v>       0.58934368       0.48224096       0.61690715 </v>
   <v>       0.51585365       0.34676679       0.62277192 </v>
   <v>       0.54929705       0.40018387       0.66035556 </v>
   <v>       0.50667592       0.39182874       0.60276634 </v>
   <v>       0.00152067       0.09476479       0.52446111 </v>
   <v>       0.47436609       0.12576017       0.52182609 </v>
   <v>       0.89718535       0.34153346       0.52435712 </v>
   <v>       0.90359987       0.20900931       0.53168678 </v>
   <v>       0.80790285       0.09529882       0.62606802 </v>
   <v>       0.80874620       0.04677895       0.65718845 </v>
   <v>       0.84848996       0.10115325       0.68628718 </v>
   <v>       0.88529645       0.00333235       0.62009841 </v>
   <v>       0.89580087       0.04403758       0.68266741 </v>
   <v>       0.83996907       0.00893344       0.65404771 </v>
   <v>       0.87262544       0.40894525       0.66494832 </v>
   <v>       0.88432136       0.37426342       0.61334767 </v>
   <v>       0.92323714       0.43277208       0.61819958 </v>
   <v>       0.86138364       0.50639437       0.62485567 </v>
   <v>       0.88039391       0.47221952       0.66277703 </v>
   <v>       0.91543830       0.51460019       0.60549933 </v>
   <v>       0.56641280       0.15124375       0.66271403 </v>
   <v>       0.51989323       0.13936011       0.61121209 </v>
   <v>       0.53959333       0.10051992       0.61647684 </v>
   <v>       0.67517909       0.16220901       0.62261982 </v>
   <v>       0.62230671       0.14427283       0.66106760 </v>
   <v>       0.62885502       0.10822072       0.60482603 </v>
   <v>       0.46542949       0.31551148       0.53370320 </v>
   <v>       0.26586374       0.12262881       0.37495420 </v>
   <v>       0.31470823       0.13944712       0.42395343 </v>
   <v>       0.27285711       0.08176300       0.41852082 </v>
   <v>       0.14567944       0.06131416       0.41956954 </v>
   <v>       0.19621106       0.09044742       0.37308781 </v>
   <v>       0.18390719       0.04066200       0.41617946 </v>
   <v>       0.88592337       0.75518069       0.37628169 </v>
   <v>       0.85400476       0.70647012       0.42541016 </v>
   <v>       0.83784202       0.74807305       0.41952580 </v>
   <v>       0.94452707       0.87519969       0.42025471 </v>
   <v>       0.92295164       0.82457873       0.37415465 </v>
   <v>       0.88558822       0.83721535       0.41707687 </v>
   <v>       0.70002323       0.45385013       0.42142376 </v>
   <v>       0.66354341       0.40881860       0.36679807 </v>
   <v>       0.66460711       0.46101560       0.36474238 </v>
   <v>       0.56310599       0.30987818       0.41832615 </v>
   <v>       0.56067089       0.34603981       0.35751176 </v>
   <v>       0.61273176       0.34821153       0.37303882 </v>
   <v>       0.87947118       0.55658054       0.53563300 </v>
   <v>       0.70665113       0.14327413       0.53414663 </v>
   <v>       0.89889860       0.13653683       0.37474405 </v>
   <v>       0.88263603       0.16869692       0.42438242 </v>
   <v>       0.94024024       0.18391635       0.41867067 </v>
   <v>       0.95949277       0.07672384       0.41822656 </v>
   <v>       0.93088648       0.09887651       0.37217626 </v>
   <v>       0.98080968       0.13567048       0.41572957 </v>
   <v>       0.78366149       0.32250480       0.42303481 </v>
   <v>       0.77490092       0.35900411       0.36877860 </v>
   <v>       0.82611321       0.35793073       0.36624007 </v>
   <v>       0.77533927       0.45821390       0.42192732 </v>
   <v>       0.81515248       0.46305691       0.36143334 </v>
   <v>       0.76591207       0.41007827       0.37428880 </v>
   <v>       0.56818953       0.23877815       0.41970055 </v>
   <v>       0.61384879       0.24784078       0.36597796 </v>
   <v>       0.56180683       0.19649584       0.36310710 </v>
   <v>       0.71270917       0.24639491       0.41859817 </v>
   <v>       0.67670489       0.20781002       0.35757567 </v>
   <v>       0.67448650       0.25761078       0.37283799 </v>
   <v>       0.06057115       0.02373766       0.52859260 </v>
   <v>       0.99178865       0.96049548       0.52899181 </v>
   <v>       0.11012209       0.04393705       0.52893525 </v>
   <v>       0.96240305       0.91104767       0.52950749 </v>
   <v>       0.46278013       0.25019034       0.52534725 </v>
   <v>       0.39824836       0.18281101       0.53163481 </v>
   <v>       0.34851893       0.15525336       0.53395108 </v>
   <v>       0.74888603       0.55601706       0.52396471 </v>
   <v>       0.81353455       0.62336111       0.53324328 </v>
   <v>       0.83567465       0.67301406       0.53547244 </v>
   <v>       0.69888053       0.52885864       0.51932125 </v>
   <v>       0.27729165       0.15001403       0.53595140 </v>
   <v>       0.25411782       0.15929469       0.58693850 </v>
   <v>       0.20699268       0.13760088       0.58557253 </v>
   <v>       0.28102945       0.19081941       0.64277707 </v>
   <v>       0.18067187       0.14460054       0.63995925 </v>
   <v>       0.90167261       0.74409199       0.53748851 </v>
   <v>       0.93416376       0.76736608       0.58838430 </v>
   <v>       0.95951258       0.81441981       0.58682637 </v>
   <v>       0.93895747       0.74064438       0.64432283 </v>
   <v>       0.99290020       0.84079647       0.64110764 </v>
   <v>       0.56653997       0.39680380       0.55695536 </v>
   <v>       0.60593121       0.43954240       0.55757985 </v>
   <v>       0.61456739       0.47124591       0.61522903 </v>
   <v>       0.53308070       0.38321969       0.61349146 </v>
   <v>       0.18313967       0.10659877       0.53328957 </v>
   <v>       0.95222692       0.83813711       0.53445969 </v>
   <v>       0.46566057       0.18556624       0.52170485 </v>
   <v>       0.81648980       0.55888372       0.52759195 </v>
   <v>       0.99719604       0.02914886       0.52781026 </v>
   <v>       0.97693588       0.05840147       0.52783557 </v>
   <v>       0.49292084       0.16284562       0.51739908 </v>
   <v>       0.83701329       0.27325232       0.52335869 </v>
   <v>       0.77211805       0.20590178       0.52599457 </v>
   <v>       0.83943898       0.20850927       0.53288427 </v>
   <v>       0.86678381       0.18612853       0.53484082 </v>
   <v>       0.86004850       0.32323495       0.51974076 </v>
   <v>       0.87129359       0.11981518       0.53551503 </v>
   <v>       0.86151227       0.08689946       0.58588508 </v>
   <v>       0.88293467       0.06124963       0.58408632 </v>
   <v>       0.82980633       0.08204423       0.64163817 </v>
   <v>       0.87537634       0.02743619       0.63789451 </v>
   <v>       0.86019244       0.45540147       0.55917954 </v>
   <v>       0.86372918       0.41613161       0.55924386 </v>
   <v>       0.88705600       0.40741838       0.61649607 </v>
   <v>       0.88018130       0.48866667       0.61585731 </v>
   <v>       0.62517057       0.16316593       0.55695188 </v>
   <v>       0.58230731       0.15965060       0.55692340 </v>
   <v>       0.55036787       0.13663424       0.61439043 </v>
   <v>       0.63857199       0.14365078       0.61415012 </v>
   <v>       0.91418655       0.06866556       0.53200106 </v>
   <v>       0.48632707       0.30005881       0.52313086 </v>
   <v>       0.56014737       0.36589356       0.50471286 </v>
   <v>       0.20625315       0.09954783       0.47981371 </v>
   <v>       0.25374904       0.12145873       0.48111180 </v>
   <v>       0.27824735       0.11620148       0.42209006 </v>
   <v>       0.18153917       0.07151274       0.41953055 </v>
   <v>       0.92212071       0.81489352       0.48095701 </v>
   <v>       0.89665121       0.76747411       0.48243101 </v>
   <v>       0.86703262       0.74284487       0.42336792 </v>
   <v>       0.91878532       0.83943277       0.42046774 </v>
   <v>       0.63830925       0.45072400       0.50573240 </v>
   <v>       0.63068639       0.42047600       0.45148075 </v>
   <v>       0.59195090       0.37822007       0.45109849 </v>
   <v>       0.66638276       0.43632891       0.39808742 </v>
   <v>       0.58202632       0.34394327       0.39701460 </v>
   <v>       0.84304049       0.53549844       0.52557739 </v>
   <v>       0.72216217       0.17960853       0.52362396 </v>
   <v>       0.83543924       0.46183887       0.50731800 </v>
   <v>       0.65628713       0.18754831       0.50482887 </v>
   <v>       0.92157278       0.09917194       0.47894172 </v>
   <v>       0.89994790       0.12498077       0.48068644 </v>
   <v>       0.90557788       0.15514052       0.42210346 </v>
   <v>       0.94967420       0.10262525       0.41862728 </v>
   <v>       0.84247126       0.38394916       0.50725549 </v>
   <v>       0.81962321       0.39165598       0.45332601 </v>
   <v>       0.81596836       0.43028673       0.45346354 </v>
   <v>       0.79969199       0.35611991       0.39980099 </v>
   <v>       0.79151999       0.44047486       0.39979556 </v>
   <v>       0.57126794       0.18064490       0.50465889 </v>
   <v>       0.60179918       0.20326716       0.45065357 </v>
   <v>       0.64413767       0.20687926       0.45084008 </v>
   <v>       0.58613076       0.22296869       0.39682863 </v>
   <v>       0.67866971       0.23121915       0.39699431 </v>
  </varray>
 </structure>
 <calculation>
  <scstep>
   <time name="dav">  700.02  709.56</time>
   <time name="total">  700.38  709.93</time>
   <energy>
    <i name="alphaZ">     65.13450120 </i>
    <i name="ewald">  75302.41156107 </i>
    <i name="hartreedc"> -91554.34723541 </i>
    <i name="XCdc">   1874.47655888 </i>
    <i name="pawpsdc">  47862.64994593 </i>
    <i name="pawaedc"> -47955.51199737 </i>
    <i name="eentropy">     -0.00000000 </i>
    <i name="bandstr">  -6609.05690367 </i>
    <i name="atom">  19758.16391727 </i>
    <i name="e_fr_energy">  -1256.07965210 </i>
    <i name="e_wo_entrp">  -1256.07965210 </i>
    <i name="e_0_energy">  -1256.07965210 </i>
   </energy>
  </scstep>
  <scstep>
   <time name="dav">  782.91  790.42</time>
   <time name="total">  782.92  790.44</time>
   <energy>
    <i name="e_fr_energy">  -1256.60941625 </i>
    <i name="e_wo_entrp">  -1256.60941625 </i>
    <i name="e_0_energy">  -1256.60941625 </i>
   </energy>
  </scstep>
  <scstep>
   <time name="dav">  887.60  896.21</time>
   <time name="total">  887.62  896.24</time>
   <energy>
    <i name="e_fr_energy">  -1256.62382362 </i>
    <i name="e_wo_entrp">  -1256.62382362 </i>
    <i name="e_0_energy">  -1256.62382362 </i>
   </energy>
  </scstep>
  <scstep>
   <time name="dav">  767.47  776.57</time>
   <time name="total">  767.51  776.60</time>
   <energy>
    <i name="e_fr_energy">  -1256.62408145 </i>
    <i name="e_wo_entrp">  -1256.62408145 </i>
    <i name="e_0_energy">  -1256.62408145 </i>
   </energy>
  </scstep>
  <scstep>
   <time name="dav">  755.50  763.68</time>
   <time name="total">  755.56  763.74</time>
   <energy>
    <i name="e_fr_energy">  -1256.62409285 </i>
    <i name="e_wo_entrp">  -1256.62409285 </i>
    <i name="e_0_energy">  -1256.62409285 </i>
   </energy>
  </scstep>
  <scstep>
   <time name="dav">  584.89  591.10</time>
   <time name="total">  584.91  591.12</time>
   <energy>
    <i name="alphaZ">     65.13450120 </i>
    <i name="ewald">  75302.41156107 </i>
    <i name="hartreedc"> -91554.34723541 </i>
    <i name="XCdc">   1874.47655888 </i>
    <i name="pawpsdc">  47862.64994593 </i>
    <i name="pawaedc"> -47955.51199737 </i>
    <i name="eentropy">     -0.00000000 </i>
    <i name="bandstr">  -6609.60134482 </i>
    <i name="atom">  19758.16391727 </i>
    <i name="e_fr_energy">  -1256.62409325 </i>
    <i name="e_wo_entrp">  -1256.62409325 </i>
    <i name="e_0_energy">  -1256.62409325 </i>
   </energy>
  </scstep>
  <structure>
   <crystal>
    <varray name="basis" >
     <v>      34.19462338      -0.01383197       0.00000000 </v>
     <v>     -17.10927606      29.66964511       0.00000000 </v>
     <v>       0.00000000       0.00000000      20.00000000 </v>
    </varray>
    <i name="volume">  20286.11370530 </i>
    <varray name="rec_basis" >
     <v>       0.02925119       0.01686797       0.00000000 </v>
     <v>       0.00001364       0.03371235       0.00000000 </v>
     <v>       0.00000000       0.00000000       0.05000000 </v>
    </varray>
   </crystal>
   <varray name="positions" >
    <v>       0.03703085       0.97846360       0.52921300 </v>
    <v>       0.48827169       0.23064525       0.51992094 </v>
    <v>       0.41758821       0.22804000       0.53242142 </v>
    <v>       0.77138614       0.53338110       0.52267365 </v>
    <v>       0.83949671       0.60405810       0.53380818 </v>
    <v>       0.76800760       0.60123099       0.52895765 </v>
    <v>       0.32416109       0.17379356       0.53968339 </v>
    <v>       0.87858206       0.69730387       0.54147812 </v>
    <v>       0.52805293       0.32093612       0.50640204 </v>
    <v>       0.13630559       0.08653103       0.53531586 </v>
    <v>       0.97884233       0.88491334       0.53640947 </v>
    <v>       0.42040214       0.15948325       0.52704435 </v>
    <v>       0.96998454       0.98399589       0.52798440 </v>
    <v>       0.04255031       0.05089625       0.52742594 </v>
    <v>       0.79186531       0.25091691       0.52055286 </v>
    <v>       0.79413029       0.18276656       0.53322062 </v>
    <v>       0.86297655       0.25396646       0.52906110 </v>
    <v>       0.84786465       0.14320607       0.53975368 </v>
    <v>       0.82234881       0.49375895       0.50941669 </v>
    <v>       0.70129676       0.20042477       0.50689242 </v>
    <v>       0.93423648       0.04191513       0.53389302 </v>
    <v>       0.68148557       0.48668610       0.50871896 </v>
    <v>       0.83540406       0.34087813       0.50962948 </v>
    <v>       0.53517904       0.18769774       0.50700662 </v>
    <v>       0.92601741       0.89929129       0.52552989 </v>
    <v>       0.12195008       0.01938507       0.52539529 </v>
    <v>       0.33488358       0.11855332       0.53042103 </v>
    <v>       0.68032098       0.54742884       0.52351928 </v>
    <v>       0.81259170       0.68666303       0.53168243 </v>
    <v>       0.31609091       0.21299398       0.62695709 </v>
    <v>       0.26656059       0.21153642       0.65898858 </v>
    <v>       0.28187497       0.17207781       0.68705970 </v>
    <v>       0.14660075       0.13482766       0.62235973 </v>
    <v>       0.17688529       0.12377583       0.68419409 </v>
    <v>       0.19749307       0.17978310       0.65688543 </v>
    <v>       0.92599987       0.70557815       0.62872239 </v>
    <v>       0.97423203       0.75508707       0.66026422 </v>
    <v>       0.91952969       0.73999528       0.68873221 </v>
    <v>       0.01701763       0.87486052       0.62349669 </v>
    <v>       0.97583491       0.84443361       0.68546017 </v>
    <v>       0.01149232       0.82413310       0.65784304 </v>
    <v>       0.61268770       0.45498070       0.66350409 </v>
    <v>       0.64789847       0.50154090       0.61259330 </v>
    <v>       0.58934368       0.48224096       0.61690715 </v>
    <v>       0.51585365       0.34676679       0.62277192 </v>
    <v>       0.54929705       0.40018387       0.66035556 </v>
    <v>       0.50667592       0.39182874       0.60276634 </v>
    <v>       0.00152067       0.09476479       0.52446111 </v>
    <v>       0.47436609       0.12576017       0.52182609 </v>
    <v>       0.89718535       0.34153346       0.52435712 </v>
    <v>       0.90359987       0.20900931       0.53168678 </v>
    <v>       0.80790285       0.09529882       0.62606802 </v>
    <v>       0.80874620       0.04677895       0.65718845 </v>
    <v>       0.84848996       0.10115325       0.68628718 </v>
    <v>       0.88529645       0.00333235       0.62009841 </v>
    <v>       0.89580087       0.04403758       0.68266741 </v>
    <v>       0.83996907       0.00893344       0.65404771 </v>
    <v>       0.87262544       0.40894525       0.66494832 </v>
    <v>       0.88432136       0.37426342       0.61334767 </v>
    <v>       0.92323714       0.43277208       0.61819958 </v>
    <v>       0.86138364       0.50639437       0.62485567 </v>
    <v>       0.88039391       0.47221952       0.66277703 </v>
    <v>       0.91543830       0.51460019       0.60549933 </v>
    <v>       0.56641280       0.15124375       0.66271403 </v>
    <v>       0.51989323       0.13936011       0.61121209 </v>
    <v>       0.53959333       0.10051992       0.61647684 </v>
    <v>       0.67517909       0.16220901       0.62261982 </v>
    <v>       0.62230671       0.14427283       0.66106760 </v>
    <v>       0.62885502       0.10822072       0.60482603 </v>
    <v>       0.46542949       0.31551148       0.53370320 </v>
    <v>       0.26586374       0.12262881       0.37495420 </v>
    <v>       0.31470823       0.13944712       0.42395343 </v>
    <v>       0.27285711       0.08176300       0.41852082 </v>
    <v>       0.14567944       0.06131416       0.41956954 </v>
    <v>       0.19621106       0.09044742       0.37308781 </v>
    <v>       0.18390719       0.04066200       0.41617946 </v>
    <v>       0.88592337       0.75518069       0.37628169 </v>
    <v>       0.85400476       0.70647012       0.42541016 </v>
    <v>       0.83784202       0.74807305       0.41952580 </v>
    <v>       0.94452707       0.87519969       0.42025471 </v>
    <v>       0.92295164       0.82457873       0.37415465 </v>
    <v>       0.88558822       0.83721535       0.41707687 </v>
    <v>       0.70002323       0.45385013       0.42142376 </v>
    <v>       0.66354341       0.40881860       0.36679807 </v>
    <v>       0.66460711       0.46101560       0.36474238 </v>
    <v>       0.56310599       0.30987818       0.41832615 </v>
    <v>       0.56067089       0.34603981       0.35751176 </v>
    <v>       0.61273176       0.34821153       0.37303882 </v>
    <v>       0.87947118       0.55658054       0.53563300 </v>
    <v>       0.70665113       0.14327413       0.53414663 </v>
    <v>       0.89889860       0.13653683       0.37474405 </v>
    <v>       0.88263603       0.16869692       0.42438242 </v>
    <v>       0.94024024       0.18391635       0.41867067 </v>
    <v>       0.95949277       0.07672384       0.41822656 </v>
    <v>       0.93088648       0.09887651       0.37217626 </v>
    <v>       0.98080968       0.13567048       0.41572957 </v>
    <v>       0.78366149       0.32250480       0.42303481 </v>
    <v>       0.77490092       0.35900411       0.36877860 </v>
    <v>       0.82611321       0.35793073       0.36624007 </v>
    <v>       0.77533927       0.45821390       0.42192732 </v>
    <v>       0.81515248       0.46305691       0.36143334 </v>
    <v>       0.76591207       0.41007827       0.37428880 </v>
    <v>       0.56818953       0.23877815       0.41970055 </v>
    <v>       0.61384879       0.24784078       0.36597796 </v>
    <v>       0.56180683       0.19649584       0.36310710 </v>
    <v>       0.71270917       0.24639491       0.41859817 </v>
    <v>       0.67670489       0.20781002       0.35757567 </v>
    <v>       0.67448650       0.25761078       0.37283799 </v>
    <v>       0.06057115       0.02373766       0.52859260 </v>
    <v>       0.99178865       0.96049548       0.52899181 </v>
    <v>       0.11012209       0.04393705       0.52893525 </v>
    <v>       0.96240305       0.91104767       0.52950749 </v>
    <v>       0.46278013       0.25019034       0.52534725 </v>
    <v>       0.39824836       0.18281101       0.53163481 </v>
    <v>       0.34851893       0.15525336       0.53395108 </v>
    <v>       0.74888603       0.55601706       0.52396471 </v>
    <v>       0.81353455       0.62336111       0.53324328 </v>
    <v>       0.83567465       0.67301406       0.53547244 </v>
    <v>       0.69888053       0.52885864       0.51932125 </v>
    <v>       0.27729165       0.15001403       0.53595140 </v>
    <v>       0.25411782       0.15929469       0.58693850 </v>
    <v>       0.20699268       0.13760088       0.58557253 </v>
    <v>       0.28102945       0.19081941       0.64277707 </v>
    <v>       0.18067187       0.14460054       0.63995925 </v>
    <v>       0.90167261       0.74409199       0.53748851 </v>
    <v>       0.93416376       0.76736608       0.58838430 </v>
    <v>       0.95951258       0.81441981       0.58682637 </v>
    <v>       0.93895747       0.74064438       0.64432283 </v>
    <v>       0.99290020       0.84079647       0.64110764 </v>
    <v>       0.56653997       0.39680380       0.55695536 </v>
    <v>       0.60593121       0.43954240       0.55757985 </v>
    <v>       0.61456739       0.47124591       0.61522903 </v>
    <v>       0.53308070       0.38321969       0.61349146 </v>
    <v>       0.18313967       0.10659877       0.53328957 </v>
    <v>       0.95222692       0.83813711       0.53445969 </v>
    <v>       0.46566057       0.18556624       0.52170485 </v>
    <v>       0.81648980       0.55888372       0.52759195 </v>
    <v>       0.99719604       0.02914886       0.52781026 </v>
    <v>       0.97693588       0.05840147       0.52783557 </v>
    <v>       0.49292084       0.16284562       0.51739908 </v>
    <v>       0.83701329       0.27325232       0.52335869 </v>
    <v>       0.77211805       0.20590178       0.52599457 </v>
    <v>       0.83943898       0.20850927       0.53288427 </v>
    <v>       0.86678381       0.18612853       0.53484082 </v>
    <v>       0.86004850       0.32323495       0.51974076 </v>
    <v>       0.87129359       0.11981518       0.53551503 </v>
    <v>       0.86151227       0.08689946       0.58588508 </v>
    <v>       0.88293467       0.06124963       0.58408632 </v>
    <v>       0.82980633       0.08204423       0.64163817 </v>
    <v>       0.87537634       0.02743619       0.63789451 </v>
    <v>       0.86019244       0.45540147       0.55917954 </v>
    <v>       0.86372918       0.41613161       0.55924386 </v>
    <v>       0.88705600       0.40741838       0.61649607 </v>
    <v>       0.88018130       0.48866667       0.61585731 </v>
    <v>       0.62517057       0.16316593       0.55695188 </v>
    <v>       0.58230731       0.15965060       0.55692340 </v>
    <v>       0.55036787       0.13663424       0.61439043 </v>
    <v>       0.63857199       0.14365078       0.61415012 </v>
    <v>       0.91418655       0.06866556       0.53200106 </v>
    <v>       0.48632707       0.30005881       0.52313086 </v>
    <v>       0.56014737       0.36589356       0.50471286 </v>
    <v>       0.20625315       0.09954783       0.47981371 </v>
    <v>       0.25374904       0.12145873       0.48111180 </v>
    <v>       0.27824735       0.11620148       0.42209006 </v>
    <v>       0.18153917       0.07151274       0.41953055 </v>
    <v>       0.92212071       0.81489352       0.48095701 </v>
    <v>       0.89665121       0.76747411       0.48243101 </v>
    <v>       0.86703262       0.74284487       0.42336792 </v>
    <v>       0.91878532       0.83943277       0.42046774 </v>
    <v>       0.63830925       0.45072400       0.50573240 </v>
    <v>       0.63068639       0.42047600       0.45148075 </v>
    <v>       0.59195090       0.37822007       0.45109849 </v>
    <v>       0.66638276       0.43632891       0.39808742 </v>
    <v>       0.58202632       0.34394327       0.39701460 </v>
    <v>       0.84304049       0.53549844       0.52557739 </v>
    <v>       0.72216217       0.17960853       0.52362396 </v>
    <v>       0.83543924       0.46183887       0.50731800 </v>
    <v>       0.65628713       0.18754831       0.50482887 </v>
    <v>       0.92157278       0.09917194       0.47894172 </v>
    <v>       0.89994790       0.12498077       0.48068644 </v>
    <v>       0.90557788       0.15514052       0.42210346 </v>
    <v>       0.94967420       0.10262525       0.41862728 </v>
    <v>       0.84247126       0.38394916       0.50725549 </v>
    <v>       0.81962321       0.39165598       0.45332601 </v>
    <v>       0.81596836       0.43028673       0.45346354 </v>
    <v>       0.79969199       0.35611991       0.39980099 </v>
    <v>       0.79151999       0.44047486       0.39979556 </v>
    <v>       0.57126794       0.18064490       0.50465889 </v>
    <v>       0.60179918       0.20326716       0.45065357 </v>
    <v>       0.64413767       0.20687926       0.45084008 </v>
    <v>       0.58613076       0.22296869       0.39682863 </v>
    <v>       0.67866971       0.23121915       0.39699431 </v>
   </varray>
  </structure>
  <varray name="forces" >
   <v>      -0.00426377      -0.00240633       0.00012256 </v>
   <v>       0.00219004      -0.00303563      -0.00089972 </v>
   <v>      -0.00320018      -0.00312185      -0.00054245 </v>
   <v>       0.00556360      -0.00098930      -0.00273296 </v>
   <v>       0.00498703      -0.00249223      -0.00354640 </v>
   <v>       0.00152707       0.00200852       0.00020380 </v>
   <v>       0.00375992      -0.00212459      -0.00212463 </v>
   <v>       0.00106685       0.00131833      -0.00129334 </v>
   <v>      -0.00278875      -0.00116739       0.00281374 </v>
   <v>      -0.00384536       0.00370553       0.00460692 </v>
   <v>       0.00079242      -0.00350538       0.00107888 </v>
   <v>      -0.00177459      -0.00509133       0.00116432 </v>
   <v>      -0.00063273       0.00462465       0.00237166 </v>
   <v>       0.00028623       0.00336054       0.00171143 </v>
   <v>       0.00019074       0.00813020       0.00124962 </v>
   <v>      -0.00283238      -0.00011759       0.00076810 </v>
   <v>       0.00066159      -0.00342997       0.00235467 </v>
   <v>       0.00010075       0.00254046      -0.00051625 </v>
   <v>       0.00286875      -0.00037693      -0.00037036 </v>
   <v>       0.00837223      -0.00190110      -0.00187177 </v>
   <v>       0.00223626       0.00094709       0.00037668 </v>
   <v>       0.00178407       0.00335668       0.00116378 </v>
   <v>      -0.00846329      -0.00363495      -0.00029194 </v>
   <v>      -0.00577438      -0.00166774      -0.00036964 </v>
   <v>      -0.00146008       0.00068541      -0.00050544 </v>
   <v>      -0.00178208      -0.00035624       0.00403425 </v>
   <v>      -0.00094976       0.00092452       0.00055991 </v>
   <v>      -0.00193497       0.00223859       0.00113687 </v>
   <v>      -0.00144715      -0.00061964      -0.00030811 </v>
   <v>       0.00090177       0.00097845      -0.00009169 </v>
   <v>      -0.00017502       0.00169289      -0.00057404 </v>
   <v>      -0.00035634       0.00072771      -0.00056877 </v>
   <v>       0.00107454       0.00087633       0.00126093 </v>
   <v>      -0.00167304       0.00207259      -0.00232843 </v>
   <v>      -0.00010987       0.00137357      -0.00161576 </v>
   <v>      -0.00069577       0.00099685       0.00041944 </v>
[...]
       <r>   -11.5559    23.8362   238.3285 </r>
       <r>   -11.4583     0.0000   240.0000 </r>
       <r>   -11.3606    35.9555   243.5123 </r>
       <r>   -11.2629    20.4743   248.0000 </r>
       <r>   -11.1652     0.0024   248.0002 </r>
       <r>   -11.0675    81.8949   256.0000 </r>
       <r>   -10.9698     0.0000   256.0000 </r>
       <r>   -10.8722     0.0000   256.0000 </r>
       <r>   -10.7745     0.0000   256.0000 </r>
       <r>   -10.6768     4.4847   256.4381 </r>
       <r>   -10.5791    19.2264   261.8781 </r>
       <r>   -10.4814    17.3985   266.0000 </r>
       <r>   -10.3837    20.4234   267.9950 </r>
       <r>   -10.2861    40.9834   272.0034 </r>
       <r>   -10.1884    29.0100   275.1010 </r>
       <r>   -10.0907    44.3570   280.0000 </r>
       <r>    -9.9930    67.1802   286.5624 </r>
       <r>    -9.8953    61.4351   296.0018 </r>
       <r>    -9.7976    36.7119   299.5879 </r>
       <r>    -9.7000    90.3851   308.9685 </r>
       <r>    -9.6023    34.6948   315.8621 </r>
       <r>    -9.5046    28.8518   320.8184 </r>
       <r>    -9.4069    74.7039   332.0000 </r>
       <r>    -9.3092     0.0000   332.0000 </r>
       <r>    -9.2115    50.6609   336.9487 </r>
       <r>    -9.1139   210.1733   359.3340 </r>
       <r>    -9.0162    81.8389   369.9999 </r>
       <r>    -8.9185    36.1196   373.5283 </r>
       <r>    -8.8208    28.4548   376.5798 </r>
       <r>    -8.7231    86.0111   385.2020 </r>
       <r>    -8.6254   151.3023   400.7831 </r>
       <r>    -8.5278    61.3788   411.9957 </r>
       <r>    -8.4301    38.4819   415.7590 </r>
       <r>    -8.3324   112.7021   427.3791 </r>
       <r>    -8.2347     0.0000   428.0000 </r>
       <r>    -8.1370     0.0000   428.0000 </r>
       <r>    -8.0393     0.0000   428.0000 </r>
       <r>    -7.9417    48.4922   432.7369 </r>
       <r>    -7.8440     3.5933   436.3510 </r>
       <r>    -7.7463    20.3981   441.9926 </r>
       <r>    -7.6486    68.8888   451.9994 </r>
       <r>    -7.5509     0.0793   452.0078 </r>
       <r>    -7.4532    59.2654   458.2270 </r>
       <r>    -7.3556    47.0859   464.0000 </r>
       <r>    -7.2579     1.2130   464.1185 </r>
       <r>    -7.1602    13.8249   465.7842 </r>
       <r>    -7.0625    13.0117   467.4378 </r>
       <r>    -6.9648    24.2253   470.0000 </r>
       <r>    -6.8671    53.3585   475.2122 </r>
       <r>    -6.7695     0.0000   476.0000 </r>
       <r>    -6.6718     0.0000   476.0000 </r>
       <r>    -6.5741     0.0000   476.0000 </r>
       <r>    -6.4764     5.5282   476.5400 </r>
       <r>    -6.3787    40.9483   482.0000 </r>
       <r>    -6.2810    15.8061   483.5440 </r>
       <r>    -6.1834    20.4743   488.0000 </r>
       <r>    -6.0857     0.0000   488.0000 </r>
       <r>    -5.9880    22.4314   490.1912 </r>
       <r>    -5.8903    42.9821   497.9997 </r>
       <r>    -5.7926    40.2482   501.9316 </r>
       <r>    -5.6949    81.6972   509.9805 </r>
       <r>    -5.5973     0.0000   510.0000 </r>
       <r>    -5.4996     0.0211   510.0021 </r>
       <r>    -5.4019    41.4110   514.0472 </r>
       <r>    -5.3042     0.1478   516.0144 </r>
       <r>    -5.2065   122.6482   527.9951 </r>
       <r>    -5.1088     0.0000   528.0000 </r>
       <r>    -5.0112     0.0000   528.0000 </r>
       <r>    -4.9135     0.0000   528.0000 </r>
       <r>    -4.8158     0.0000   528.0000 </r>
       <r>    -4.7181     0.0000   528.0000 </r>
       <r>    -4.6204     0.0244   528.0024 </r>
       <r>    -4.5227    61.3986   534.0000 </r>
       <r>    -4.4251     0.0000   534.0000 </r>
       <r>    -4.3274    27.2383   536.6607 </r>
       <r>    -4.2297     0.0000   540.0000 </r>
       <r>    -4.1320     0.0000   540.0000 </r>
       <r>    -4.0343     0.0000   540.0000 </r>
       <r>    -3.9366     0.0000   540.0000 </r>
       <r>    -3.8390     0.0000   540.0000 </r>
       <r>    -3.7413     0.0000   540.0000 </r>
       <r>    -3.6436     0.0000   540.0000 </r>
       <r>    -3.5459     0.0000   540.0000 </r>
       <r>    -3.4482     0.0000   540.0000 </r>
       <r>    -3.3505     0.0000   540.0000 </r>
       <r>    -3.2529     0.0046   540.0005 </r>
       <r>    -3.1552    43.4519   544.2450 </r>
       <r>    -3.0575    13.6446   546.0000 </r>
       <r>    -2.9598    40.9036   549.9956 </r>
       <r>    -2.8621    11.3954   551.1131 </r>
       <r>    -2.7644    26.6139   554.0000 </r>
       <r>    -2.6668     0.0002   554.0000 </r>
       <r>    -2.5691    20.4741   556.0000 </r>
       <r>    -2.4714     0.0000   556.0000 </r>
       <r>    -2.3737     0.0000   556.0000 </r>
       <r>    -2.2760     0.0000   556.0000 </r>
       <r>    -2.1783     5.1865   556.5066 </r>
       <r>    -2.0807    13.2990   557.9992 </r>
       <r>    -1.9830    10.9495   559.0696 </r>
       <r>    -1.8853     4.9709   559.6856 </r>
       <r>    -1.7876    26.1724   562.3567 </r>
       <r>    -1.6899    15.3533   564.0000 </r>
       <r>    -1.5922     0.0000   564.0000 </r>
       <r>    -1.4946     0.0000   564.0000 </r>
       <r>    -1.3969     0.0000   564.0000 </r>
       <r>    -1.2992     0.0000   564.0000 </r>
       <r>    -1.2015     0.0000   564.0000 </r>
       <r>    -1.1038     0.0000   564.0000 </r>
       <r>    -1.0061     0.0000   564.0000 </r>
       <r>    -0.9085     0.0000   564.0000 </r>
       <r>    -0.8108     0.0000   564.0000 </r>
       <r>    -0.7131     0.0000   564.0000 </r>
       <r>    -0.6154    61.4242   570.0001 </r>
       <r>    -0.5177   103.5945   580.1196 </r>
       <r>    -0.4200     8.1862   582.0000 </r>
       <r>    -0.3224    58.3264   587.6975 </r>
       <r>    -0.2247     1.0235   588.1000 </r>
       <r>    -0.1270    53.1411   593.9925 </r>
       <r>    -0.0293    81.6040   601.9713 </r>
       <r>     0.0684    17.9335   603.7518 </r>
       <r>     0.1661    66.7475   611.8874 </r>
       <r>     0.2637    75.2010   620.8807 </r>
       <r>     0.3614    69.3522   628.9422 </r>
       <r>     0.4591    51.8836   635.0682 </r>
       <r>     0.5568    41.6757   642.0710 </r>
       <r>     0.6545    93.1588   652.5021 </r>
       <r>     0.7522    90.4414   663.5698 </r>
       <r>     0.8498   119.6735   676.9915 </r>
       <r>     0.9475   126.5995   691.3018 </r>
       <r>     1.0452   112.1722   704.9253 </r>
       <r>     1.1429   123.3209   719.3489 </r>
       <r>     1.2406   106.4207   732.2300 </r>
       <r>     1.3383    15.6680   736.0000 </r>
       <r>     1.4359     0.0000   736.0000 </r>
       <r>     1.5336     0.0000   736.0000 </r>
       <r>     1.6313     0.0000   736.0000 </r>
       <r>     1.7290     0.0000   736.0000 </r>
       <r>     1.8267     0.0000   736.0000 </r>
       <r>     1.9244     0.0000   736.0000 </r>
       <r>     2.0220     0.0000   736.0000 </r>
       <r>     2.1197     0.0000   736.0000 </r>
       <r>     2.2174     0.0000   736.0000 </r>
       <r>     2.3151     0.0000   736.0000 </r>
       <r>     2.4128     0.0000   736.0000 </r>
       <r>     2.5105     0.0000   736.0000 </r>
       <r>     2.6081     0.0000   736.0000 </r>
      </set>
     </set>
    </array>
   </total>
  </dos>
 </calculation>
 <structure name="finalpos" >
  <crystal>
   <varray name="basis" >
    <v>      34.19462338      -0.01383197       0.00000000 </v>
    <v>     -17.10927606      29.66964511       0.00000000 </v>
    <v>       0.00000000       0.00000000      20.00000000 </v>
   </varray>
   <i name="volume">  20286.11370530 </i>
   <varray name="rec_basis" >
    <v>       0.02925119       0.01686797       0.00000000 </v>
    <v>       0.00001364       0.03371235       0.00000000 </v>
    <v>       0.00000000       0.00000000       0.05000000 </v>
   </varray>
  </crystal>
  <varray name="positions" >
   <v>       0.03703085       0.97846360       0.52921300 </v>
   <v>       0.48827169       0.23064525       0.51992094 </v>
   <v>       0.41758821       0.22804000       0.53242142 </v>
   <v>       0.77138614       0.53338110       0.52267365 </v>
   <v>       0.83949671       0.60405810       0.53380818 </v>
   <v>       0.76800760       0.60123099       0.52895765 </v>
   <v>       0.32416109       0.17379356       0.53968339 </v>
   <v>       0.87858206       0.69730387       0.54147812 </v>
   <v>       0.52805293       0.32093612       0.50640204 </v>
   <v>       0.13630559       0.08653103       0.53531586 </v>
   <v>       0.97884233       0.88491334       0.53640947 </v>
   <v>       0.42040214       0.15948325       0.52704435 </v>
   <v>       0.96998454       0.98399589       0.52798440 </v>
   <v>       0.04255031       0.05089625       0.52742594 </v>
   <v>       0.79186531       0.25091691       0.52055286 </v>
   <v>       0.79413029       0.18276656       0.53322062 </v>
   <v>       0.86297655       0.25396646       0.52906110 </v>
   <v>       0.84786465       0.14320607       0.53975368 </v>
   <v>       0.82234881       0.49375895       0.50941669 </v>
   <v>       0.70129676       0.20042477       0.50689242 </v>
   <v>       0.93423648       0.04191513       0.53389302 </v>
   <v>       0.68148557       0.48668610       0.50871896 </v>
   <v>       0.83540406       0.34087813       0.50962948 </v>
   <v>       0.53517904       0.18769774       0.50700662 </v>
   <v>       0.92601741       0.89929129       0.52552989 </v>
   <v>       0.12195008       0.01938507       0.52539529 </v>
   <v>       0.33488358       0.11855332       0.53042103 </v>
   <v>       0.68032098       0.54742884       0.52351928 </v>
   <v>       0.81259170       0.68666303       0.53168243 </v>
   <v>       0.31609091       0.21299398       0.62695709 </v>
   <v>       0.26656059       0.21153642       0.65898858 </v>
   <v>       0.28187497       0.17207781       0.68705970 </v>
   <v>       0.14660075       0.13482766       0.62235973 </v>
   <v>       0.17688529       0.12377583       0.68419409 </v>
   <v>       0.19749307       0.17978310       0.65688543 </v>
   <v>       0.92599987       0.70557815       0.62872239 </v>
   <v>       0.97423203       0.75508707       0.66026422 </v>
   <v>       0.91952969       0.73999528       0.68873221 </v>
   <v>       0.01701763       0.87486052       0.62349669 </v>
   <v>       0.97583491       0.84443361       0.68546017 </v>
   <v>       0.01149232       0.82413310       0.65784304 </v>
   <v>       0.61268770       0.45498070       0.66350409 </v>
   <v>       0.64789847       0.50154090       0.61259330 </v>
   <v>       0.58934368       0.48224096       0.61690715 </v>
   <v>       0.51585365       0.34676679       0.62277192 </v>
   <v>       0.54929705       0.40018387       0.66035556 </v>
   <v>       0.50667592       0.39182874       0.60276634 </v>
   <v>       0.00152067       0.09476479       0.52446111 </v>
   <v>       0.47436609       0.12576017       0.52182609 </v>
   <v>       0.89718535       0.34153346       0.52435712 </v>
   <v>       0.90359987       0.20900931       0.53168678 </v>
   <v>       0.80790285       0.09529882       0.62606802 </v>
   <v>       0.80874620       0.04677895       0.65718845 </v>
   <v>       0.84848996       0.10115325       0.68628718 </v>
   <v>       0.88529645       0.00333235       0.62009841 </v>
   <v>       0.89580087       0.04403758       0.68266741 </v>
   <v>       0.83996907       0.00893344       0.65404771 </v>
   <v>       0.87262544       0.40894525       0.66494832 </v>
   <v>       0.88432136       0.37426342       0.61334767 </v>
   <v>       0.92323714       0.43277208       0.61819958 </v>
   <v>       0.86138364       0.50639437       0.62485567 </v>
   <v>       0.88039391       0.47221952       0.66277703 </v>
   <v>       0.91543830       0.51460019       0.60549933 </v>
   <v>       0.56641280       0.15124375       0.66271403 </v>
   <v>       0.51989323       0.13936011       0.61121209 </v>
   <v>       0.53959333       0.10051992       0.61647684 </v>
   <v>       0.67517909       0.16220901       0.62261982 </v>
   <v>       0.62230671       0.14427283       0.66106760 </v>
   <v>       0.62885502       0.10822072       0.60482603 </v>
   <v>       0.46542949       0.31551148       0.53370320 </v>
   <v>       0.26586374       0.12262881       0.37495420 </v>
   <v>       0.31470823       0.13944712       0.42395343 </v>
   <v>       0.27285711       0.08176300       0.41852082 </v>
   <v>       0.14567944       0.06131416       0.41956954 </v>
   <v>       0.19621106       0.09044742       0.37308781 </v>
   <v>       0.18390719       0.04066200       0.41617946 </v>
   <v>       0.88592337       0.75518069       0.37628169 </v>
   <v>       0.85400476       0.70647012       0.42541016 </v>
   <v>       0.83784202       0.74807305       0.41952580 </v>
   <v>       0.94452707       0.87519969       0.42025471 </v>
   <v>       0.92295164       0.82457873       0.37415465 </v>
   <v>       0.88558822       0.83721535       0.41707687 </v>
   <v>       0.70002323       0.45385013       0.42142376 </v>
   <v>       0.66354341       0.40881860       0.36679807 </v>
   <v>       0.66460711       0.46101560       0.36474238 </v>
   <v>       0.56310599       0.30987818       0.41832615 </v>
   <v>       0.56067089       0.34603981       0.35751176 </v>
   <v>       0.61273176       0.34821153       0.37303882 </v>
   <v>       0.87947118       0.55658054       0.53563300 </v>
   <v>       0.70665113       0.14327413       0.53414663 </v>
   <v>       0.89889860       0.13653683       0.37474405 </v>
   <v>       0.88263603       0.16869692       0.42438242 </v>
   <v>       0.94024024       0.18391635       0.41867067 </v>
   <v>       0.95949277       0.07672384       0.41822656 </v>
   <v>       0.93088648       0.09887651       0.37217626 </v>
   <v>       0.98080968       0.13567048       0.41572957 </v>
   <v>       0.78366149       0.32250480       0.42303481 </v>
   <v>       0.77490092       0.35900411       0.36877860 </v>
   <v>       0.82611321       0.35793073       0.36624007 </v>
   <v>       0.77533927       0.45821390       0.42192732 </v>
   <v>       0.81515248       0.46305691       0.36143334 </v>
   <v>       0.76591207       0.41007827       0.37428880 </v>
   <v>       0.56818953       0.23877815       0.41970055 </v>
   <v>       0.61384879       0.24784078       0.36597796 </v>
   <v>       0.56180683       0.19649584       0.36310710 </v>
   <v>       0.71270917       0.24639491       0.41859817 </v>
   <v>       0.67670489       0.20781002       0.35757567 </v>
   <v>       0.67448650       0.25761078       0.37283799 </v>
   <v>       0.06057115       0.02373766       0.52859260 </v>
   <v>       0.99178865       0.96049548       0.52899181 </v>
   <v>       0.11012209       0.04393705       0.52893525 </v>
   <v>       0.96240305       0.91104767       0.52950749 </v>
   <v>       0.46278013       0.25019034       0.52534725 </v>
   <v>       0.39824836       0.18281101       0.53163481 </v>
   <v>       0.34851893       0.15525336       0.53395108 </v>
   <v>       0.74888603       0.55601706       0.52396471 </v>
   <v>       0.81353455       0.62336111       0.53324328 </v>
   <v>       0.83567465       0.67301406       0.53547244 </v>
   <v>       0.69888053       0.52885864       0.51932125 </v>
   <v>       0.27729165       0.15001403       0.53595140 </v>
   <v>       0.25411782       0.15929469       0.58693850 </v>
   <v>       0.20699268       0.13760088       0.58557253 </v>
   <v>       0.28102945       0.19081941       0.64277707 </v>
   <v>       0.18067187       0.14460054       0.63995925 </v>
   <v>       0.90167261       0.74409199       0.53748851 </v>
   <v>       0.93416376       0.76736608       0.58838430 </v>
   <v>       0.95951258       0.81441981       0.58682637 </v>
   <v>       0.93895747       0.74064438       0.64432283 </v>
   <v>       0.99290020       0.84079647       0.64110764 </v>
   <v>       0.56653997       0.39680380       0.55695536 </v>
   <v>       0.60593121       0.43954240       0.55757985 </v>
   <v>       0.61456739       0.47124591       0.61522903 </v>
   <v>       0.53308070       0.38321969       0.61349146 </v>
   <v>       0.18313967       0.10659877       0.53328957 </v>
   <v>       0.95222692       0.83813711       0.53445969 </v>
   <v>       0.46566057       0.18556624       0.52170485 </v>
   <v>       0.81648980       0.55888372       0.52759195 </v>
   <v>       0.99719604       0.02914886       0.52781026 </v>
   <v>       0.97693588       0.05840147       0.52783557 </v>
   <v>       0.49292084       0.16284562       0.51739908 </v>
   <v>       0.83701329       0.27325232       0.52335869 </v>
   <v>       0.77211805       0.20590178       0.52599457 </v>
   <v>       0.83943898       0.20850927       0.53288427 </v>
   <v>       0.86678381       0.18612853       0.53484082 </v>
   <v>       0.86004850       0.32323495       0.51974076 </v>
   <v>       0.87129359       0.11981518       0.53551503 </v>
   <v>       0.86151227       0.08689946       0.58588508 </v>
   <v>       0.88293467       0.06124963       0.58408632 </v>
   <v>       0.82980633       0.08204423       0.64163817 </v>
   <v>       0.87537634       0.02743619       0.63789451 </v>
   <v>       0.86019244       0.45540147       0.55917954 </v>
   <v>       0.86372918       0.41613161       0.55924386 </v>
   <v>       0.88705600       0.40741838       0.61649607 </v>
   <v>       0.88018130       0.48866667       0.61585731 </v>
   <v>       0.62517057       0.16316593       0.55695188 </v>
   <v>       0.58230731       0.15965060       0.55692340 </v>
   <v>       0.55036787       0.13663424       0.61439043 </v>
   <v>       0.63857199       0.14365078       0.61415012 </v>
   <v>       0.91418655       0.06866556       0.53200106 </v>
   <v>       0.48632707       0.30005881       0.52313086 </v>
   <v>       0.56014737       0.36589356       0.50471286 </v>
   <v>       0.20625315       0.09954783       0.47981371 </v>
   <v>       0.25374904       0.12145873       0.48111180 </v>
   <v>       0.27824735       0.11620148       0.42209006 </v>
   <v>       0.18153917       0.07151274       0.41953055 </v>
   <v>       0.92212071       0.81489352       0.48095701 </v>
   <v>       0.89665121       0.76747411       0.48243101 </v>
   <v>       0.86703262       0.74284487       0.42336792 </v>
   <v>       0.91878532       0.83943277       0.42046774 </v>
   <v>       0.63830925       0.45072400       0.50573240 </v>
   <v>       0.63068639       0.42047600       0.45148075 </v>
   <v>       0.59195090       0.37822007       0.45109849 </v>
   <v>       0.66638276       0.43632891       0.39808742 </v>
   <v>       0.58202632       0.34394327       0.39701460 </v>
   <v>       0.84304049       0.53549844       0.52557739 </v>
   <v>       0.72216217       0.17960853       0.52362396 </v>
   <v>       0.83543924       0.46183887       0.50731800 </v>
   <v>       0.65628713       0.18754831       0.50482887 </v>
   <v>       0.92157278       0.09917194       0.47894172 </v>
   <v>       0.89994790       0.12498077       0.48068644 </v>
   <v>       0.90557788       0.15514052       0.42210346 </v>
   <v>       0.94967420       0.10262525       0.41862728 </v>
   <v>       0.84247126       0.38394916       0.50725549 </v>
   <v>       0.81962321       0.39165598       0.45332601 </v>
   <v>       0.81596836       0.43028673       0.45346354 </v>
   <v>       0.79969199       0.35611991       0.39980099 </v>
   <v>       0.79151999       0.44047486       0.39979556 </v>
   <v>       0.57126794       0.18064490       0.50465889 </v>
   <v>       0.60179918       0.20326716       0.45065357 </v>
   <v>       0.64413767       0.20687926       0.45084008 </v>
   <v>       0.58613076       0.22296869       0.39682863 </v>
   <v>       0.67866971       0.23121915       0.39699431 </v>
  </varray>
 </structure>
</modeling>
