<?xml version="1.0" encoding="ISO-8859-1"?>
<modeling>
 <generator>
  <i name="program" type="string">vasp </i>
  <i name="version" type="string">5.4.4.18Apr17-6-g9f103f2a35  </i>
  <i name="subversion" type="string">(build Jun 07 2020 16:50:00) complex            parallel </i>
  <i name="platform" type="string">LinuxIFC </i>
  <i name="date" type="string">2023 02 10 </i>
  <i name="time" type="string">15:27:06 </i>
 </generator>
 <incar>
  <i type="string" name="SYSTEM">Simulation for cell shape cell volume r</i>
  <i type="int" name="ISTART">     1</i>
  <i type="string" name="PREC">high</i>
  <i type="string" name="ALGO">48</i>
  <i type="int" name="ICHARG">    11</i>
  <i type="int" name="NELM">   200</i>
  <i type="int" name="IBRION">    -1</i>
  <i name="EDIFF">      0.00001000</i>
  <i name="EDIFFG">     -0.01000000</i>
  <i type="int" name="NSW">     0</i>
  <i type="int" name="ISIF">     2</i>
  <i name="ENCUT">    500.00000000</i>
  <i name="POTIM">      0.30000000</i>
  <i type="string" name="LREAL">A</i>
  <i type="int" name="ISMEAR">     0</i>
  <i name="SIGMA">      0.01000000</i>
  <i type="int" name="NWRITE">     0</i>
  <i type="logical" name="LWAVE"> F  </i>
  <i type="logical" name="LCHARG"> F  </i>
  <v type="int" name="KPOINT_BSE">    -1     0     0     0</v>
  <i type="int" name="NELM">   200</i>
  <i type="string" name="GGA">PE</i>
 </incar>
 <structure name="primitive_cell" >
  <crystal>
   <varray name="basis" >
    <v>      29.26569274       0.02680268       0.00000000 </v>
    <v>     -14.60941608      25.30067270       0.00000000 </v>
    <v>       0.00000000       0.00000000      20.00000000 </v>
   </varray>
   <i name="volume">  14816.66570071 </i>
   <varray name="rec_basis" >
    <v>       0.03415164       0.01972025       0.00000000 </v>
    <v>      -0.00003618       0.03950375       0.00000000 </v>
    <v>       0.00000000       0.00000000       0.05000000 </v>
   </varray>
  </crystal>
  <varray name="positions" >
   <v>       0.31199963      -0.30143759      -0.44365535 </v>
   <v>       0.36449205      -0.28125322      -0.44419217 </v>
   <v>       0.28434449      -0.35458747      -0.44373574 </v>
   <v>       0.22971323      -0.37735276      -0.44163552 </v>
   <v>       0.39623009      -0.22652573      -0.44265105 </v>
   <v>       0.30452055      -0.38700837      -0.44354157 </v>
   <v>       0.38996771      -0.30893815      -0.44386322 </v>
   <v>       0.35759681      -0.36154988      -0.44365647 </v>
   <v>       0.35832615      -0.21631441       0.47525595 </v>
   <v>       0.38773327      -0.19838290      -0.48428565 </v>
   <v>       0.20141170      -0.41398817      -0.48314783 </v>
   <v>       0.21915006      -0.42566290       0.47631696 </v>
   <v>       0.38034224      -0.39350963      -0.44116900 </v>
   <v>       0.39075127      -0.15793153      -0.33772240 </v>
   <v>       0.41806655      -0.14054733      -0.48346726 </v>
   <v>       0.14367167      -0.44127462      -0.48230714 </v>
   <v>       0.42802383      -0.35666827       0.47612140 </v>
   <v>       0.43626621      -0.13369291      -0.35943978 </v>
   <v>       0.41664293      -0.38570170      -0.48290817 </v>
   <v>       0.16137546      -0.44984516      -0.33642373 </v>
   <v>       0.13650622      -0.42926934      -0.35842565 </v>
   <v>       0.44353597      -0.10981957      -0.42677614 </v>
   <v>       0.40547108      -0.13642357       0.41125025 </v>
   <v>       0.42481695      -0.11351032       0.45600342 </v>
   <v>       0.12712474      -0.39771949      -0.32872983 </v>
   <v>       0.11285841      -0.44624536      -0.42582527 </v>
   <v>       0.47677241      -0.12504315      -0.32945191 </v>
   <v>       0.13980708      -0.45837840       0.41253330 </v>
   <v>       0.11681305      -0.46174522       0.45712320 </v>
   <v>       0.45372989      -0.38888261      -0.33603251 </v>
   <v>       0.44390938      -0.41625119      -0.48174182 </v>
   <v>       0.47455464      -0.05526765      -0.42984277 </v>
   <v>       0.45602510      -0.05884679       0.45184091 </v>
   <v>       0.05838116      -0.46980688      -0.42915559 </v>
   <v>       0.43240468      -0.43447483      -0.35772204 </v>
   <v>       0.06224525      -0.48520728       0.45271061 </v>
   <v>       0.46076888      -0.40363727       0.41301390 </v>
   <v>       0.48088025      -0.02906862      -0.49087115 </v>
   <v>       0.49374134      -0.03339928      -0.38445722 </v>
   <v>       0.44904432      -0.44179393      -0.42499136 </v>
   <v>       0.40039644      -0.47499897      -0.32778355 </v>
   <v>       0.03640427      -0.47233616      -0.38394322 </v>
   <v>       0.46427382      -0.42300510       0.45781603 </v>
   <v>       0.03237705      -0.48995175      -0.49019297 </v>
   <v>       0.46029559      -0.03882689       0.40430246 </v>
   <v>       0.04236950       0.49883850       0.40517480 </v>
   <v>       0.41710632       0.00934897      -0.43149335 </v>
   <v>       0.47261361      -0.47279498      -0.42790058 </v>
   <v>      -0.48593427       0.02911350      -0.49512438 </v>
   <v>       0.48784102      -0.45412173       0.45383829 </v>
   <v>      -0.02573746       0.48475855      -0.49459267 </v>
   <v>       0.46015394       0.04393229      -0.40928137 </v>
   <v>      -0.02296940      -0.46103879       0.43061334 </v>
   <v>      -0.00505128       0.40770619      -0.43216053 </v>
   <v>       0.47524269      -0.49199488      -0.38246788 </v>
   <v>      -0.43504174       0.02573517       0.42990630 </v>
   <v>       0.49272657      -0.47896411      -0.48880320 </v>
   <v>      -0.49384513       0.06412351      -0.45474651 </v>
   <v>      -0.49624153      -0.45827972       0.40639612 </v>
   <v>      -0.04876412      -0.49528631       0.46112738 </v>
   <v>      -0.44305217       0.05183742       0.46049854 </v>
   <v>       0.46801460       0.06387250      -0.35284460 </v>
   <v>      -0.03959843       0.41600896      -0.40932829 </v>
   <v>      -0.06036535       0.44159457      -0.45438900 </v>
   <v>      -0.05901818       0.40397424      -0.35264819 </v>
   <v>      -0.40641308      -0.41539834      -0.42638550 </v>
   <v>      -0.48192679       0.48818616      -0.49307718 </v>
   <v>      -0.46149958       0.11843572      -0.45757003 </v>
   <v>      -0.10330906       0.48236910       0.45685326 </v>
   <v>      -0.41041390       0.10641000       0.45621522 </v>
   <v>       0.46487053       0.43788802       0.43068345 </v>
   <v>      -0.11464508       0.41925180      -0.45712467 </v>
   <v>      -0.41447466      -0.45870798      -0.40545117 </v>
   <v>      -0.46906519       0.14416686      -0.42566946 </v>
   <v>      -0.12023900       0.49859623       0.42195874 </v>
   <v>       0.49874050       0.44584846       0.46162632 </v>
   <v>      -0.41944467       0.14031821       0.49680293 </v>
   <v>      -0.43935316       0.49597145      -0.45222364 </v>
   <v>      -0.37735739       0.12304051       0.42123973 </v>
   <v>      -0.13683347       0.43929083       0.49740289 </v>
   <v>      -0.40269393      -0.46741805      -0.34929694 </v>
   <v>      -0.14009638       0.38579449      -0.42532810 </v>
   <v>      -0.47881559       0.41368167       0.45680612 </v>
   <v>      -0.38584310       0.19763221       0.49113809 </v>
   <v>      -0.41685225       0.46410515      -0.45565449 </v>
   <v>      -0.19406999       0.41541033       0.49183154 </v>
   <v>      -0.49460532       0.38104725       0.42112472 </v>
   <v>      -0.20901059       0.43467262       0.45772622 </v>
   <v>      -0.35155433       0.21242787       0.45729432 </v>
   <v>      -0.43613046       0.42268902       0.49772362 </v>
   <v>      -0.39634206       0.22912453      -0.47624846 </v>
   <v>      -0.38383695       0.47155146      -0.42338655 </v>
   <v>      -0.22538072       0.37358812      -0.47521096 </v>
   <v>      -0.36179889       0.28332481      -0.47932523 </v>
   <v>      -0.41189251       0.38960046       0.49155485 </v>
   <v>      -0.27951421       0.35403793      -0.47872871 </v>
   <v>      -0.43105844       0.35538038       0.45747987 </v>
   <v>      -0.30964415       0.30105836      -0.47857852 </v>
   <v>      -0.29725166       0.38856286      -0.47868315 </v>
   <v>      -0.38455148       0.31355481      -0.47933675 </v>
   <v>      -0.36986743       0.40036689      -0.47587667 </v>
   <v>      -0.35015362       0.36581728      -0.47925262 </v>
  </varray>
 </structure>
 <varray name="primitive_index" >
  <v type="int" >        1 </v>
  <v type="int" >       21 </v>
  <v type="int" >       20 </v>
  <v type="int" >        4 </v>
  <v type="int" >        6 </v>
  <v type="int" >        3 </v>
  <v type="int" >        2 </v>
  <v type="int" >       22 </v>
  <v type="int" >       83 </v>
  <v type="int" >       33 </v>
  <v type="int" >       48 </v>
  <v type="int" >       88 </v>
  <v type="int" >        5 </v>
  <v type="int" >       68 </v>
  <v type="int" >       26 </v>
  <v type="int" >       42 </v>
  <v type="int" >       86 </v>
  <v type="int" >       14 </v>
  <v type="int" >       41 </v>
  <v type="int" >       76 </v>
  <v type="int" >       18 </v>
  <v type="int" >       27 </v>
  <v type="int" >       90 </v>
  <v type="int" >       50 </v>
  <v type="int" >       78 </v>
  <v type="int" >       43 </v>
  <v type="int" >       70 </v>
  <v type="int" >       99 </v>
  <v type="int" >       62 </v>
  <v type="int" >       72 </v>
  <v type="int" >       34 </v>
  <v type="int" >       28 </v>
  <v type="int" >       49 </v>
  <v type="int" >       44 </v>
  <v type="int" >       16 </v>
  <v type="int" >       61 </v>
  <v type="int" >       95 </v>
  <v type="int" >       29 </v>
  <v type="int" >       82 </v>
  <v type="int" >       35 </v>
  <v type="int" >       74 </v>
  <v type="int" >       79 </v>
  <v type="int" >       56 </v>
  <v type="int" >       19 </v>
  <v type="int" >       89 </v>
  <v type="int" >       80 </v>
  <v type="int" >       69 </v>
  <v type="int" >       36 </v>
  <v type="int" >       30 </v>
  <v type="int" >       55 </v>
  <v type="int" >       45 </v>
  <v type="int" >       13 </v>
  <v type="int" >      101 </v>
  <v type="int" >       77 </v>
  <v type="int" >       85 </v>
  <v type="int" >       92 </v>
  <v type="int" >       37 </v>
  <v type="int" >       31 </v>
  <v type="int" >       94 </v>
  <v type="int" >       65 </v>
  <v type="int" >       53 </v>
  <v type="int" >       67 </v>
  <v type="int" >       17 </v>
  <v type="int" >       46 </v>
  <v type="int" >       75 </v>
  <v type="int" >       73 </v>
  <v type="int" >       38 </v>
  <v type="int" >       32 </v>
  <v type="int" >       64 </v>
  <v type="int" >       52 </v>
  <v type="int" >       97 </v>
  <v type="int" >       47 </v>
  <v type="int" >       15 </v>
  <v type="int" >       81 </v>
  <v type="int" >      100 </v>
  <v type="int" >       59 </v>
  <v type="int" >       51 </v>
  <v type="int" >       39 </v>
  <v type="int" >       91 </v>
  <v type="int" >       63 </v>
  <v type="int" >       71 </v>
  <v type="int" >       87 </v>
  <v type="int" >       58 </v>
  <v type="int" >       54 </v>
  <v type="int" >       40 </v>
  <v type="int" >       66 </v>
  <v type="int" >       96 </v>
  <v type="int" >      102 </v>
  <v type="int" >       93 </v>
  <v type="int" >       57 </v>
  <v type="int" >       12 </v>
  <v type="int" >       84 </v>
  <v type="int" >       10 </v>
  <v type="int" >       24 </v>
  <v type="int" >       60 </v>
  <v type="int" >       23 </v>
  <v type="int" >       98 </v>
  <v type="int" >        7 </v>
  <v type="int" >        9 </v>
  <v type="int" >        8 </v>
  <v type="int" >       11 </v>
  <v type="int" >       25 </v>
 </varray>
 <kpoints>
  <generation param="listgenerated">
   <i name="divisions" type="int">      20 </i>
   <v>       0.00000000       0.00000000       0.00000000 </v>
   <v>       0.50000000       0.00000000       0.00000000 </v>
   <v>       0.33333333       0.33333333       0.00000000 </v>
   <v>       0.00000000       0.00000000       0.00000000 </v>
  </generation>
  <varray name="kpointlist" >
   <v>       0.00000000       0.00000000       0.00000000 </v>
   <v>       0.02631579       0.00000000       0.00000000 </v>
   <v>       0.05263158       0.00000000       0.00000000 </v>
   <v>       0.07894737       0.00000000       0.00000000 </v>
   <v>       0.10526316       0.00000000       0.00000000 </v>
   <v>       0.13157895       0.00000000       0.00000000 </v>
   <v>       0.15789474       0.00000000       0.00000000 </v>
   <v>       0.18421053       0.00000000       0.00000000 </v>
   <v>       0.21052632       0.00000000       0.00000000 </v>
   <v>       0.23684211       0.00000000       0.00000000 </v>
   <v>       0.26315789       0.00000000       0.00000000 </v>
   <v>       0.28947368       0.00000000       0.00000000 </v>
   <v>       0.31578947       0.00000000       0.00000000 </v>
   <v>       0.34210526       0.00000000       0.00000000 </v>
   <v>       0.36842105       0.00000000       0.00000000 </v>
   <v>       0.39473684       0.00000000       0.00000000 </v>
   <v>       0.42105263       0.00000000       0.00000000 </v>
   <v>       0.44736842       0.00000000       0.00000000 </v>
   <v>       0.47368421       0.00000000       0.00000000 </v>
   <v>       0.50000000       0.00000000       0.00000000 </v>
   <v>       0.50000000       0.00000000       0.00000000 </v>
   <v>       0.49122807       0.01754386       0.00000000 </v>
   <v>       0.48245614       0.03508772       0.00000000 </v>
   <v>       0.47368421       0.05263158       0.00000000 </v>
   <v>       0.46491228       0.07017544       0.00000000 </v>
   <v>       0.45614035       0.08771930       0.00000000 </v>
   <v>       0.44736842       0.10526316       0.00000000 </v>
   <v>       0.43859649       0.12280702       0.00000000 </v>
   <v>       0.42982456       0.14035088       0.00000000 </v>
   <v>       0.42105263       0.15789474       0.00000000 </v>
   <v>       0.41228070       0.17543860       0.00000000 </v>
   <v>       0.40350877       0.19298246       0.00000000 </v>
   <v>       0.39473684       0.21052632       0.00000000 </v>
   <v>       0.38596491       0.22807018       0.00000000 </v>
   <v>       0.37719298       0.24561404       0.00000000 </v>
   <v>       0.36842105       0.26315789       0.00000000 </v>
   <v>       0.35964912       0.28070175       0.00000000 </v>
   <v>       0.35087719       0.29824561       0.00000000 </v>
   <v>       0.34210526       0.31578947       0.00000000 </v>
   <v>       0.33333333       0.33333333       0.00000000 </v>
   <v>       0.33333333       0.33333333       0.00000000 </v>
   <v>       0.31578947       0.31578947       0.00000000 </v>
   <v>       0.29824561       0.29824561       0.00000000 </v>
   <v>       0.28070175       0.28070175       0.00000000 </v>
   <v>       0.26315789       0.26315789       0.00000000 </v>
   <v>       0.24561404       0.24561404       0.00000000 </v>
   <v>       0.22807018       0.22807018       0.00000000 </v>
   <v>       0.21052632       0.21052632       0.00000000 </v>
   <v>       0.19298246       0.19298246       0.00000000 </v>
   <v>       0.17543860       0.17543860       0.00000000 </v>
   <v>       0.15789474       0.15789474       0.00000000 </v>
   <v>       0.14035088       0.14035088       0.00000000 </v>
   <v>       0.12280702       0.12280702       0.00000000 </v>
   <v>       0.10526316       0.10526316       0.00000000 </v>
   <v>       0.08771930       0.08771930       0.00000000 </v>
   <v>       0.07017544       0.07017544       0.00000000 </v>
   <v>       0.05263158       0.05263158       0.00000000 </v>
   <v>       0.03508772       0.03508772       0.00000000 </v>
   <v>       0.01754386       0.01754386       0.00000000 </v>
   <v>       0.00000000       0.00000000       0.00000000 </v>
  </varray>
  <varray name="weights" >
   <v>       0.01666667 </v>
   <v>       0.01666667 </v>
   <v>       0.01666667 </v>
   <v>       0.01666667 </v>
   <v>       0.01666667 </v>
   <v>       0.01666667 </v>
   <v>       0.01666667 </v>
   <v>       0.01666667 </v>
   <v>       0.01666667 </v>
   <v>       0.01666667 </v>
   <v>       0.01666667 </v>
   <v>       0.01666667 </v>
   <v>       0.01666667 </v>
   <v>       0.01666667 </v>
   <v>       0.01666667 </v>
   <v>       0.01666667 </v>
   <v>       0.01666667 </v>
   <v>       0.01666667 </v>
   <v>       0.01666667 </v>
   <v>       0.01666667 </v>
   <v>       0.01666667 </v>
   <v>       0.01666667 </v>
   <v>       0.01666667 </v>
   <v>       0.01666667 </v>
   <v>       0.01666667 </v>
   <v>       0.01666667 </v>
   <v>       0.01666667 </v>
   <v>       0.01666667 </v>
   <v>       0.01666667 </v>
   <v>       0.01666667 </v>
   <v>       0.01666667 </v>
   <v>       0.01666667 </v>
   <v>       0.01666667 </v>
   <v>       0.01666667 </v>
   <v>       0.01666667 </v>
   <v>       0.01666667 </v>
   <v>       0.01666667 </v>
   <v>       0.01666667 </v>
   <v>       0.01666667 </v>
   <v>       0.01666667 </v>
   <v>       0.01666667 </v>
   <v>       0.01666667 </v>
   <v>       0.01666667 </v>
   <v>       0.01666667 </v>
   <v>       0.01666667 </v>
   <v>       0.01666667 </v>
   <v>       0.01666667 </v>
   <v>       0.01666667 </v>
   <v>       0.01666667 </v>
   <v>       0.01666667 </v>
   <v>       0.01666667 </v>
   <v>       0.01666667 </v>
   <v>       0.01666667 </v>
   <v>       0.01666667 </v>
   <v>       0.01666667 </v>
   <v>       0.01666667 </v>
   <v>       0.01666667 </v>
   <v>       0.01666667 </v>
   <v>       0.01666667 </v>
   <v>       0.01666667 </v>
  </varray>
 </kpoints>
 <parameters>
  <separator name="general" >
   <i type="string" name="SYSTEM">Simulation for cell shape cell volume r</i>
   <i type="logical" name="LCOMPAT"> F  </i>
  </separator>
  <separator name="electronic" >
   <i type="string" name="PREC">high</i>
   <i name="ENMAX">    500.00000000</i>
   <i name="ENAUG">    644.87300000</i>
   <i name="EDIFF">      0.00001000</i>
   <i type="int" name="IALGO">    38</i>
   <i type="int" name="IWAVPR">    10</i>
   <i type="int" name="NBANDS">   256</i>
   <i name="NELECT">    378.00000000</i>
   <i type="int" name="TURBO">     0</i>
   <i type="int" name="IRESTART">     0</i>
   <i type="int" name="NREBOOT">     0</i>
   <i type="int" name="NMIN">     0</i>
   <i name="EREF">      0.00000000</i>
   <separator name="electronic smearing" >
    <i type="int" name="ISMEAR">     0</i>
    <i name="SIGMA">      0.01000000</i>
    <i name="KSPACING">      0.50000000</i>
    <i type="logical" name="KGAMMA"> T  </i>
   </separator>
   <separator name="electronic projectors" >
    <i type="logical" name="LREAL"> T  </i>
    <v name="ROPT">     -0.00040000     -0.00040000     -0.00040000     -0.00040000</v>
    <i type="int" name="LMAXPAW">  -100</i>
    <i type="int" name="LMAXMIX">     2</i>
    <i type="logical" name="NLSPLINE"> F  </i>
   </separator>
   <separator name="electronic startup" >
    <i type="int" name="ISTART">     1</i>
    <i type="int" name="ICHARG">    11</i>
    <i type="int" name="INIWAV">     1</i>
   </separator>
   <separator name="electronic spin" >
    <i type="int" name="ISPIN">     1</i>
    <i type="logical" name="LNONCOLLINEAR"> F  </i>
    <v name="MAGMOM">      1.00000000      1.00000000      1.00000000      1.00000000      1.00000000      1.00000000      1.00000000      1.00000000      1.00000000      1.00000000      1.00000000      1.00000000      1.00000000      1.00000000      1.00000000      1.00000000      1.00000000      1.00000000      1.00000000      1.00000000
      1.00000000      1.00000000      1.00000000      1.00000000      1.00000000      1.00000000      1.00000000      1.00000000      1.00000000      1.00000000      1.00000000      1.00000000      1.00000000      1.00000000      1.00000000      1.00000000      1.00000000      1.00000000      1.00000000      1.00000000
      1.00000000      1.00000000      1.00000000      1.00000000      1.00000000      1.00000000      1.00000000      1.00000000      1.00000000      1.00000000      1.00000000      1.00000000      1.00000000      1.00000000      1.00000000      1.00000000      1.00000000      1.00000000      1.00000000      1.00000000
      1.00000000      1.00000000      1.00000000      1.00000000      1.00000000      1.00000000      1.00000000      1.00000000      1.00000000      1.00000000      1.00000000      1.00000000      1.00000000      1.00000000      1.00000000      1.00000000      1.00000000      1.00000000      1.00000000      1.00000000
      1.00000000      1.00000000      1.00000000      1.00000000      1.00000000      1.00000000      1.00000000      1.00000000      1.00000000      1.00000000      1.00000000      1.00000000      1.00000000      1.00000000      1.00000000      1.00000000      1.00000000      1.00000000      1.00000000      1.00000000
      1.00000000      1.00000000</v>
    <i name="NUPDOWN">     -1.00000000</i>
    <i type="logical" name="LSORBIT"> F  </i>
    <v name="SAXIS">      0.00000000      0.00000000      1.00000000</v>
    <i type="logical" name="LSPIRAL"> F  </i>
    <v name="QSPIRAL">      0.00000000      0.00000000      0.00000000</v>
    <i type="logical" name="LZEROZ"> F  </i>
   </separator>
   <separator name="electronic exchange-correlation" >
    <i type="logical" name="LASPH"> F  </i>
    <i type="logical" name="LMETAGGA"> F  </i>
   </separator>
   <separator name="electronic convergence" >
    <i type="int" name="NELM">   200</i>
    <i type="int" name="NELMDL">     0</i>
    <i type="int" name="NELMIN">     2</i>
    <i name="ENINI">    500.00000000</i>
    <separator name="electronic convergence detail" >
     <i type="logical" name="LDIAG"> T  </i>
     <i type="logical" name="LSUBROT"> F  </i>
     <i name="WEIMIN">      0.00000000</i>
     <i name="EBREAK">      0.00000001</i>
     <i name="DEPER">      0.30000000</i>
     <i type="int" name="NRMM">     4</i>
     <i name="TIME">      0.40000000</i>
    </separator>
   </separator>
   <separator name="electronic mixer" >
    <i name="AMIX">      0.40000000</i>
    <i name="BMIX">      1.00000000</i>
    <i name="AMIN">      0.10000000</i>
    <i name="AMIX_MAG">      1.60000000</i>
    <i name="BMIX_MAG">      1.00000000</i>
    <separator name="electronic mixer details" >
     <i type="int" name="IMIX">     4</i>
     <i type="logical" name="MIXFIRST"> F  </i>
     <i type="int" name="MAXMIX">   -45</i>
     <i name="WC">    100.00000000</i>
     <i type="int" name="INIMIX">     1</i>
     <i type="int" name="MIXPRE">     1</i>
     <i type="int" name="MREMOVE">     5</i>
    </separator>
   </separator>
   <separator name="electronic dipolcorrection" >
    <i type="logical" name="LDIPOL"> F  </i>
    <i type="logical" name="LMONO"> F  </i>
    <i type="int" name="IDIPOL">     0</i>
    <i name="EPSILON">      1.00000000</i>
    <v name="DIPOL">   -100.00000000   -100.00000000   -100.00000000</v>
    <i name="EFIELD">      0.00000000</i>
   </separator>
  </separator>
  <separator name="grids" >
   <i type="int" name="NGX">   216</i>
   <i type="int" name="NGY">   216</i>
   <i type="int" name="NGZ">   150</i>
   <i type="int" name="NGXF">   324</i>
   <i type="int" name="NGYF">   324</i>
   <i type="int" name="NGZF">   224</i>
   <i type="logical" name="ADDGRID"> F  </i>
  </separator>
  <separator name="ionic" >
   <i type="int" name="NSW">     0</i>
   <i type="int" name="IBRION">    -1</i>
   <i type="int" name="MDALGO">     0</i>
   <i type="int" name="ISIF">     2</i>
   <i name="PSTRESS">      0.00000000</i>
   <i name="EDIFFG">     -0.01000000</i>
   <i type="int" name="NFREE">     0</i>
   <i name="POTIM">      0.30000000</i>
   <i name="SMASS">     -3.00000000</i>
   <i name="SCALEE">      1.00000000</i>
  </separator>
  <separator name="ionic md" >
   <i name="TEBEG">      0.00010000</i>
   <i name="TEEND">      0.00010000</i>
   <i type="int" name="NBLOCK">     1</i>
   <i type="int" name="KBLOCK">     1</i>
   <i type="int" name="NPACO">   256</i>
   <i name="APACO">     16.00000000</i>
  </separator>
  <separator name="symmetry" >
   <i type="int" name="ISYM">     2</i>
   <i name="SYMPREC">      0.00001000</i>
  </separator>
  <separator name="dos" >
   <i type="int" name="LORBIT">     0</i>
   <v name="RWIGS">     -1.00000000     -1.00000000     -1.00000000     -1.00000000</v>
   <i type="int" name="NEDOS">   301</i>
   <i name="EMIN">     10.00000000</i>
   <i name="EMAX">    -10.00000000</i>
   <i name="EFERMI">      0.00000000</i>
  </separator>
  <separator name="writing" >
   <i type="int" name="NWRITE">     0</i>
   <i type="logical" name="LWAVE"> F  </i>
   <i type="logical" name="LDOWNSAMPLE"> F  </i>
   <i type="logical" name="LCHARG"> F  </i>
   <i type="logical" name="LPARD"> F  </i>
   <i type="logical" name="LVTOT"> F  </i>
   <i type="logical" name="LVHAR"> F  </i>
   <i type="logical" name="LELF"> F  </i>
   <i type="logical" name="LOPTICS"> F  </i>
   <v name="STM">      0.00000000      0.00000000      0.00000000      0.00000000      0.00000000      0.00000000      0.00000000</v>
  </separator>
  <separator name="performance" >
   <i type="int" name="NPAR">    16</i>
   <i type="int" name="NSIM">     4</i>
   <i type="int" name="NBLK">    -1</i>
   <i type="logical" name="LPLANE"> T  </i>
   <i type="logical" name="LSCALAPACK"> T  </i>
   <i type="logical" name="LSCAAWARE"> F  </i>
   <i type="logical" name="LSCALU"> F  </i>
   <i type="logical" name="LASYNC"> F  </i>
   <i type="logical" name="LORBITALREAL"> F  </i>
  </separator>
  <separator name="miscellaneous" >
   <i type="int" name="IDIOT">     3</i>
   <i type="int" name="ISPECIAL">     0</i>
   <i type="logical" name="LMUSIC"> F  </i>
   <v name="POMASS">     14.00100000     12.01100000     16.00000000      1.00000000</v>
   <v name="DARWINR">      0.00000000      0.00000000      0.00000000      0.00000000</v>
   <v name="DARWINV">      1.00000000      1.00000000      1.00000000      1.00000000</v>
   <i type="logical" name="LCORR"> T  </i>
  </separator>
  <i type="logical" name="GGA_COMPAT"> T  </i>
  <i type="logical" name="LBERRY"> F  </i>
  <i type="int" name="ICORELEVEL">     0</i>
  <i type="logical" name="LDAU"> F  </i>
  <i type="int" name="I_CONSTRAINED_M">     0</i>
  <separator name="electronic exchange-correlation" >
   <i type="string" name="GGA">PE</i>
   <i type="int" name="VOSKOWN">     0</i>
   <i type="logical" name="LHFCALC"> F  </i>
   <i type="string" name="PRECFOCK"></i>
   <i type="logical" name="LSYMGRAD"> F  </i>
   <i type="logical" name="LHFONE"> F  </i>
   <i type="logical" name="LRHFCALC"> F  </i>
   <i type="logical" name="LTHOMAS"> F  </i>
   <i type="logical" name="LMODELHF"> F  </i>
   <i name="ENCUT4O">     -1.00000000</i>
   <i type="int" name="EXXOEP">     0</i>
   <i type="int" name="FOURORBIT">     0</i>
   <i name="AEXX">      0.00000000</i>
   <i name="HFALPHA">      0.00000000</i>
   <i name="MCALPHA">      0.00000000</i>
   <i name="ALDAX">      1.00000000</i>
   <i name="AGGAX">      1.00000000</i>
   <i name="ALDAC">      1.00000000</i>
   <i name="AGGAC">      1.00000000</i>
   <i type="int" name="NKREDX">     1</i>
   <i type="int" name="NKREDY">     1</i>
   <i type="int" name="NKREDZ">     1</i>
   <i type="logical" name="SHIFTRED"> F  </i>
   <i type="logical" name="ODDONLY"> F  </i>
   <i type="logical" name="EVENONLY"> F  </i>
   <i type="int" name="LMAXFOCK">     0</i>
   <i type="int" name="NMAXFOCKAE">     0</i>
   <i type="logical" name="LFOCKAEDFT"> F  </i>
   <i name="HFSCREEN">      0.00000000</i>
   <i name="HFSCREENC">      0.00000000</i>
   <i type="int" name="NBANDSGWLOW">     0</i>
  </separator>
  <separator name="vdW DFT" >
   <i type="logical" name="LUSE_VDW"> F  </i>
   <i name="Zab_VDW">     -0.84910000</i>
   <i name="PARAM1">      0.12340000</i>
   <i name="PARAM2">      1.00000000</i>
   <i name="PARAM3">      0.00000000</i>
  </separator>
  <separator name="model GW" >
   <i type="int" name="MODEL_GW">     0</i>
   <i name="MODEL_EPS0">     87.15685706</i>
   <i name="MODEL_ALPHA">      1.00000000</i>
  </separator>
  <separator name="linear response parameters" >
   <i type="logical" name="LEPSILON"> F  </i>
   <i type="logical" name="LRPA"> F  </i>
   <i type="logical" name="LNABLA"> F  </i>
   <i type="logical" name="LVEL"> F  </i>
   <i type="int" name="KINTER">     0</i>
   <i name="CSHIFT">      0.10000000</i>
   <i name="OMEGAMAX">     -1.00000000</i>
   <i name="DEG_THRESHOLD">      0.00200000</i>
   <i name="RTIME">     -0.10000000</i>
   <i name="WPLASMAI">      0.00000000</i>
   <v name="DFIELD">      0.00000000      0.00000000      0.00000000</v>
   <v name="WPLASMA">      0.00000000      0.00000000      0.00000000      0.00000000      0.00000000      0.00000000      0.00000000      0.00000000      0.00000000</v>
  </separator>
  <separator name="orbital magnetization" >
   <i type="logical" name="NUCIND"> F  </i>
   <v name="MAGPOS">      0.00000000      0.00000000      0.00000000</v>
   <i type="logical" name="LNICSALL"> T  </i>
   <i type="logical" name="ORBITALMAG"> F  </i>
   <i type="logical" name="LMAGBLOCH"> F  </i>
   <i type="logical" name="LCHIMAG"> F  </i>
   <i type="logical" name="LGAUGE"> T  </i>
   <i type="int" name="MAGATOM">     0</i>
   <v name="MAGDIPOL">      0.00000000      0.00000000      0.00000000</v>
   <v name="AVECCONST">      0.00000000      0.00000000      0.00000000</v>
  </separator>
  <separator name="response functions" >
   <i type="logical" name="LADDER"> F  </i>
   <i type="logical" name="LRPAFORCE"> F  </i>
   <i type="logical" name="LFXC"> F  </i>
   <i type="logical" name="LHARTREE"> T  </i>
   <i type="int" name="IBSE">     0</i>
   <v type="int" name="KPOINT">    -1     0     0     0</v>
   <i type="logical" name="LTCTE"> F  </i>
   <i type="logical" name="LTETE"> F  </i>
   <i type="logical" name="LTRIPLET"> F  </i>
   <i type="logical" name="LFXCEPS"> F  </i>
   <i type="logical" name="LFXHEG"> F  </i>
   <i type="int" name="NATURALO">     2</i>
   <i type="logical" name="L2ORDER"> F  </i>
   <i type="logical" name="LMP2LT"> F  </i>
   <i type="logical" name="LUSEW"> F  </i>
   <i name="ENCUTGW">     -2.00000000</i>
   <i name="ENCUTGWSOFT">     -2.00000000</i>
   <i name="ENCUTLF">     -1.00000000</i>
   <i type="int" name="LMAXMP2">    -1</i>
   <i name="SCISSOR">      0.00000000</i>
   <i type="int" name="NOMEGA">     0</i>
   <i type="int" name="NOMEGAR">     0</i>
   <i type="int" name="NBANDSGW">    -1</i>
   <i type="int" name="NBANDSO">    -1</i>
   <i type="int" name="NBANDSV">    -1</i>
   <i type="int" name="NELM">   200</i>
   <i type="int" name="NELMHF">     1</i>
   <i type="int" name="DIM">     3</i>
   <i type="int" name="ANTIRES">     0</i>
   <i name="OMEGAMAX">    -30.00000000</i>
   <i name="OMEGAMIN">    -30.00000000</i>
   <i name="OMEGATL">   -200.00000000</i>
   <i type="int" name="OMEGAGRID">   140</i>
   <i name="CSHIFT">     -0.10000000</i>
   <i type="logical" name="SELFENERGY"> F  </i>
   <i type="logical" name="LSPECTRAL"> F  </i>
   <i type="logical" name="LSPECTRALGW"> F  </i>
   <i type="logical" name="LSINGLES"> F  </i>
   <i type="logical" name="LFERMIGW"> F  </i>
   <i type="logical" name="ODDONLYGW"> F  </i>
   <i type="logical" name="EVENONLYGW"> F  </i>
   <i type="int" name="NKREDLFX">     1</i>
   <i type="int" name="NKREDLFY">     1</i>
   <i type="int" name="NKREDLFZ">     1</i>
   <i type="int" name="MAXMEM">  2800</i>
   <i type="int" name="TELESCOPE">     0</i>
   <i type="int" name="TAUPAR">     1</i>
   <i type="int" name="OMEGAPAR">    -1</i>
   <i name="LAMBDA">      1.00000000</i>
  </separator>
  <separator name="External order field" >
   <i name="OFIELD_KAPPA">      0.00000000</i>
   <v name="OFIELD_K">      0.00000000      0.00000000      0.00000000</v>
   <i name="OFIELD_Q6_NEAR">      0.00000000</i>
   <i name="OFIELD_Q6_FAR">      0.00000000</i>
   <i name="OFIELD_A">      0.00000000</i>
  </separator>
  <separator name="solvation model" >
   <i type="logical" name="LSOL"> F  </i>
  </separator>
 </parameters>
 <atominfo>
  <atoms>     102 </atoms>
  <types>       4 </types>
  <array name="atoms" >
   <dimension dim="1">ion</dimension>
   <field type="string">element</field>
   <field type="int">atomtype</field>
   <set>
    <rc><c>N </c><c>   1</c></rc>
    <rc><c>N </c><c>   1</c></rc>
    <rc><c>N </c><c>   1</c></rc>
    <rc><c>N </c><c>   1</c></rc>
    <rc><c>N </c><c>   1</c></rc>
    <rc><c>N </c><c>   1</c></rc>
    <rc><c>N </c><c>   1</c></rc>
    <rc><c>N </c><c>   1</c></rc>
    <rc><c>N </c><c>   1</c></rc>
    <rc><c>N </c><c>   1</c></rc>
    <rc><c>N </c><c>   1</c></rc>
    <rc><c>N </c><c>   1</c></rc>
    <rc><c>N </c><c>   1</c></rc>
    <rc><c>N </c><c>   1</c></rc>
    <rc><c>N </c><c>   1</c></rc>
    <rc><c>N </c><c>   1</c></rc>
    <rc><c>N </c><c>   1</c></rc>
    <rc><c>N </c><c>   1</c></rc>
    <rc><c>C </c><c>   2</c></rc>
    <rc><c>C </c><c>   2</c></rc>
    <rc><c>C </c><c>   2</c></rc>
    <rc><c>C </c><c>   2</c></rc>
    <rc><c>C </c><c>   2</c></rc>
    <rc><c>C </c><c>   2</c></rc>
    <rc><c>C </c><c>   2</c></rc>
    <rc><c>C </c><c>   2</c></rc>
    <rc><c>C </c><c>   2</c></rc>
    <rc><c>C </c><c>   2</c></rc>
    <rc><c>C </c><c>   2</c></rc>
    <rc><c>C </c><c>   2</c></rc>
    <rc><c>C </c><c>   2</c></rc>
    <rc><c>C </c><c>   2</c></rc>
    <rc><c>C </c><c>   2</c></rc>
    <rc><c>C </c><c>   2</c></rc>
    <rc><c>C </c><c>   2</c></rc>
    <rc><c>C </c><c>   2</c></rc>
    <rc><c>C </c><c>   2</c></rc>
    <rc><c>C </c><c>   2</c></rc>
    <rc><c>C </c><c>   2</c></rc>
    <rc><c>C </c><c>   2</c></rc>
    <rc><c>C </c><c>   2</c></rc>
    <rc><c>C </c><c>   2</c></rc>
    <rc><c>C </c><c>   2</c></rc>
    <rc><c>C </c><c>   2</c></rc>
    <rc><c>C </c><c>   2</c></rc>
    <rc><c>C </c><c>   2</c></rc>
    <rc><c>C </c><c>   2</c></rc>
    <rc><c>C </c><c>   2</c></rc>
    <rc><c>C </c><c>   2</c></rc>
    <rc><c>C </c><c>   2</c></rc>
    <rc><c>C </c><c>   2</c></rc>
    <rc><c>C </c><c>   2</c></rc>
    <rc><c>C </c><c>   2</c></rc>
    <rc><c>C </c><c>   2</c></rc>
    <rc><c>C </c><c>   2</c></rc>
    <rc><c>C </c><c>   2</c></rc>
    <rc><c>C </c><c>   2</c></rc>
    <rc><c>C </c><c>   2</c></rc>
    <rc><c>C </c><c>   2</c></rc>
    <rc><c>C </c><c>   2</c></rc>
    <rc><c>C </c><c>   2</c></rc>
    <rc><c>C </c><c>   2</c></rc>
    <rc><c>C </c><c>   2</c></rc>
    <rc><c>C </c><c>   2</c></rc>
    <rc><c>C </c><c>   2</c></rc>
    <rc><c>C </c><c>   2</c></rc>
    <rc><c>O </c><c>   3</c></rc>
    <rc><c>O </c><c>   3</c></rc>
    <rc><c>O </c><c>   3</c></rc>
    <rc><c>O </c><c>   3</c></rc>
    <rc><c>O </c><c>   3</c></rc>
    <rc><c>O </c><c>   3</c></rc>
    <rc><c>O </c><c>   3</c></rc>
    <rc><c>O </c><c>   3</c></rc>
    <rc><c>O </c><c>   3</c></rc>
    <rc><c>O </c><c>   3</c></rc>
    <rc><c>O </c><c>   3</c></rc>
    <rc><c>O </c><c>   3</c></rc>
    <rc><c>H </c><c>   4</c></rc>
    <rc><c>H </c><c>   4</c></rc>
    <rc><c>H </c><c>   4</c></rc>
    <rc><c>H </c><c>   4</c></rc>
    <rc><c>H </c><c>   4</c></rc>
    <rc><c>H </c><c>   4</c></rc>
    <rc><c>H </c><c>   4</c></rc>
    <rc><c>H </c><c>   4</c></rc>
    <rc><c>H </c><c>   4</c></rc>
    <rc><c>H </c><c>   4</c></rc>
    <rc><c>H </c><c>   4</c></rc>
    <rc><c>H </c><c>   4</c></rc>
    <rc><c>H </c><c>   4</c></rc>
    <rc><c>H </c><c>   4</c></rc>
    <rc><c>H </c><c>   4</c></rc>
    <rc><c>H </c><c>   4</c></rc>
    <rc><c>H </c><c>   4</c></rc>
    <rc><c>H </c><c>   4</c></rc>
    <rc><c>H </c><c>   4</c></rc>
    <rc><c>H </c><c>   4</c></rc>
    <rc><c>H </c><c>   4</c></rc>
    <rc><c>H </c><c>   4</c></rc>
    <rc><c>H </c><c>   4</c></rc>
    <rc><c>H </c><c>   4</c></rc>
   </set>
  </array>
  <array name="atomtypes" >
   <dimension dim="1">type</dimension>
   <field type="int">atomspertype</field>
   <field type="string">element</field>
   <field>mass</field>
   <field>valence</field>
   <field type="string">pseudopotential</field>
   <set>
    <rc><c>  18</c><c>N </c><c>     14.00100000</c><c>      5.00000000</c><c>  PAW_PBE N 08Apr2002                   </c></rc>
    <rc><c>  48</c><c>C </c><c>     12.01100000</c><c>      4.00000000</c><c>  PAW_PBE C 08Apr2002                   </c></rc>
    <rc><c>  12</c><c>O </c><c>     16.00000000</c><c>      6.00000000</c><c>  PAW_PBE O 08Apr2002                   </c></rc>
    <rc><c>  24</c><c>H </c><c>      1.00000000</c><c>      1.00000000</c><c>  PAW_PBE H 15Jun2001                   </c></rc>
   </set>
  </array>
 </atominfo>
 <structure name="initialpos" >
  <crystal>
   <varray name="basis" >
    <v>      29.26569274       0.02680268       0.00000000 </v>
    <v>     -14.60941608      25.30067270       0.00000000 </v>
    <v>       0.00000000       0.00000000      20.00000000 </v>
   </varray>
   <i name="volume">  14816.66570071 </i>
   <varray name="rec_basis" >
    <v>       0.03415164       0.01972025       0.00000000 </v>
    <v>      -0.00003618       0.03950375       0.00000000 </v>
    <v>       0.00000000       0.00000000       0.05000000 </v>
   </varray>
  </crystal>
  <varray name="positions" >
   <v>       0.31199963       0.69856241       0.55634465 </v>
   <v>       0.38996771       0.69106185       0.55613678 </v>
   <v>       0.30452055       0.61299163       0.55645843 </v>
   <v>       0.22971323       0.62264724       0.55836448 </v>
   <v>       0.38034224       0.60649037       0.55883100 </v>
   <v>       0.39623009       0.77347427       0.55734895 </v>
   <v>       0.69035585       0.30105836       0.52142148 </v>
   <v>       0.61544852       0.31355481       0.52066325 </v>
   <v>       0.70274834       0.38856286       0.52131685 </v>
   <v>       0.77461928       0.37358812       0.52478904 </v>
   <v>       0.63013257       0.40036689       0.52412333 </v>
   <v>       0.60365794       0.22912453       0.52375154 </v>
   <v>       0.46015394       0.04393229       0.59071863 </v>
   <v>       0.43626621       0.86630709       0.64056022 </v>
   <v>       0.58552534       0.54129202       0.59454883 </v>
   <v>       0.43240468       0.56552517       0.64227796 </v>
   <v>       0.96040157       0.41600896       0.59067171 </v>
   <v>       0.13650622       0.57073066       0.64157435 </v>
   <v>       0.03237705       0.51004825       0.50980703 </v>
   <v>       0.28434449       0.64541253       0.55626426 </v>
   <v>       0.36449205       0.71874678       0.55580783 </v>
   <v>       0.35759681       0.63845012       0.55634353 </v>
   <v>       0.72048579       0.35403793       0.52127129 </v>
   <v>       0.63820111       0.28332481       0.52067477 </v>
   <v>       0.64984638       0.36581728       0.52074738 </v>
   <v>       0.41806655       0.85945267       0.51653274 </v>
   <v>       0.44353597       0.89018043       0.57322386 </v>
   <v>       0.47455464       0.94473235       0.57015723 </v>
   <v>       0.48088025       0.97093138       0.50912885 </v>
   <v>       0.51406573       0.02911350       0.50487562 </v>
   <v>       0.50615487       0.06412351       0.54525349 </v>
   <v>       0.53850042       0.11843572       0.54242997 </v>
   <v>       0.38773327       0.80161710       0.51571435 </v>
   <v>       0.44390938       0.58374881       0.51825818 </v>
   <v>       0.44904432       0.55820607       0.57500864 </v>
   <v>       0.47261361       0.52720502       0.57209942 </v>
   <v>       0.49272657       0.52103589       0.51119680 </v>
   <v>       0.51807321       0.48818616       0.50692282 </v>
   <v>       0.56064684       0.49597145       0.54777636 </v>
   <v>       0.58314775       0.46410515       0.54434551 </v>
   <v>       0.41664293       0.61429830       0.51709183 </v>
   <v>       0.14367167       0.55872538       0.51769286 </v>
   <v>       0.11285841       0.55375464       0.57417473 </v>
   <v>       0.05838116       0.53019312       0.57084441 </v>
   <v>       0.97426254       0.48475855       0.50540733 </v>
   <v>       0.93963465       0.44159457       0.54561100 </v>
   <v>       0.88535492       0.41925180       0.54287533 </v>
   <v>       0.20141170       0.58601183       0.51685217 </v>
   <v>       0.45602510       0.94115321       0.45184091 </v>
   <v>       0.42481695       0.88648968       0.45600342 </v>
   <v>       0.58055533       0.14031821       0.49680293 </v>
   <v>       0.58958610       0.10641000       0.45621522 </v>
   <v>       0.55694783       0.05183742       0.46049854 </v>
   <v>       0.61415690       0.19763221       0.49113809 </v>
   <v>       0.48784102       0.54587827       0.45383829 </v>
   <v>       0.46427382       0.57699490       0.45781603 </v>
   <v>       0.56386954       0.42268902       0.49772362 </v>
   <v>       0.52118441       0.41368167       0.45680612 </v>
   <v>       0.49874050       0.44584846       0.46162632 </v>
   <v>       0.58810749       0.38960046       0.49155485 </v>
   <v>       0.06224525       0.51479272       0.45271061 </v>
   <v>       0.11681305       0.53825478       0.45712320 </v>
   <v>       0.86316653       0.43929083       0.49740289 </v>
   <v>       0.89669094       0.48236910       0.45685326 </v>
   <v>       0.95123588       0.50471369       0.46112738 </v>
   <v>       0.80593001       0.41541033       0.49183154 </v>
   <v>       0.46801460       0.06387250       0.64715540 </v>
   <v>       0.39075127       0.84206847       0.66227760 </v>
   <v>       0.41710632       0.00934897       0.56850665 </v>
   <v>       0.47677241       0.87495685       0.67054809 </v>
   <v>       0.59730607       0.53258195       0.65070306 </v>
   <v>       0.45372989       0.61111739       0.66396749 </v>
   <v>       0.59358692       0.58460166       0.57361450 </v>
   <v>       0.40039644       0.52500103       0.67221645 </v>
   <v>       0.94098182       0.40397424       0.64735181 </v>
   <v>       0.16137546       0.55015484       0.66357627 </v>
   <v>       0.99494872       0.40770619       0.56783947 </v>
   <v>       0.12712474       0.60228051       0.67127017 </v>
   <v>       0.03640427       0.52766384       0.61605678 </v>
   <v>       0.04236950       0.49883850       0.40517480 </v>
   <v>       0.53093481       0.14416686       0.57433054 </v>
   <v>       0.49374134       0.96660072       0.61554278 </v>
   <v>       0.35832615       0.78368559       0.47525595 </v>
   <v>       0.61616305       0.47155146       0.57661345 </v>
   <v>       0.47524269       0.50800512       0.61753212 </v>
   <v>       0.42802383       0.64333173       0.47612140 </v>
   <v>       0.85990362       0.38579449       0.57467190 </v>
   <v>       0.21915006       0.57433710       0.47631696 </v>
   <v>       0.46029559       0.96117311       0.40430246 </v>
   <v>       0.40547108       0.86357643       0.41125025 </v>
   <v>       0.62264261       0.12304051       0.42123973 </v>
   <v>       0.56495826       0.02573517       0.42990630 </v>
   <v>       0.64844567       0.21242787       0.45729432 </v>
   <v>       0.50375847       0.54172028       0.40639612 </v>
   <v>       0.46076888       0.59636273       0.41301390 </v>
   <v>       0.50539468       0.38104725       0.42112472 </v>
   <v>       0.46487053       0.43788802       0.43068345 </v>
   <v>       0.56894156       0.35538038       0.45747987 </v>
   <v>       0.13980708       0.54162160       0.41253330 </v>
   <v>       0.87976100       0.49859623       0.42195874 </v>
   <v>       0.97703060       0.53896121       0.43061334 </v>
   <v>       0.79098941       0.43467262       0.45772622 </v>
  </varray>
 </structure>
 <calculation>
  <scstep>
   <time name="dav">  340.30  343.48</time>
   <time name="total">  340.63  343.82</time>
   <energy>
    <i name="alphaZ">     43.62578779 </i>
    <i name="ewald">  47223.31554363 </i>
    <i name="hartreedc"> -61411.81488973 </i>
    <i name="XCdc">   1425.60213347 </i>
    <i name="pawpsdc">  35422.38838149 </i>
    <i name="pawaedc"> -35503.35066078 </i>
    <i name="eentropy">     -0.00000000 </i>
    <i name="bandstr">  -5240.60460381 </i>
    <i name="atom">  17312.70306276 </i>
    <i name="e_fr_energy">   -728.13524516 </i>
    <i name="e_wo_entrp">   -728.13524516 </i>
    <i name="e_0_energy">   -728.13524516 </i>
   </energy>
  </scstep>
  <scstep>
   <time name="dav">  378.38  381.92</time>
   <time name="total">  378.39  381.94</time>
   <energy>
    <i name="e_fr_energy">   -728.66090353 </i>
    <i name="e_wo_entrp">   -728.66090353 </i>
    <i name="e_0_energy">   -728.66090353 </i>
   </energy>
  </scstep>
  <scstep>
   <time name="dav">  434.67  438.80</time>
   <time name="total">  434.67  438.82</time>
   <energy>
    <i name="e_fr_energy">   -728.67699734 </i>
    <i name="e_wo_entrp">   -728.67699734 </i>
    <i name="e_0_energy">   -728.67699734 </i>
   </energy>
  </scstep>
  <scstep>
   <time name="dav">  382.94  386.59</time>
   <time name="total">  382.95  386.61</time>
   <energy>
    <i name="e_fr_energy">   -728.67723296 </i>
    <i name="e_wo_entrp">   -728.67723296 </i>
    <i name="e_0_energy">   -728.67723296 </i>
   </energy>
  </scstep>
  <scstep>
   <time name="dav">  357.16  360.58</time>
   <time name="total">  357.18  360.60</time>
   <energy>
    <i name="e_fr_energy">   -728.67724611 </i>
    <i name="e_wo_entrp">   -728.67724611 </i>
    <i name="e_0_energy">   -728.67724611 </i>
   </energy>
  </scstep>
  <scstep>
   <time name="dav">  294.16  296.94</time>
   <time name="total">  294.17  296.95</time>
   <energy>
    <i name="alphaZ">     43.62578779 </i>
    <i name="ewald">  47223.31554363 </i>
    <i name="hartreedc"> -61411.81488973 </i>
    <i name="XCdc">   1425.60213347 </i>
    <i name="pawpsdc">  35422.38838149 </i>
    <i name="pawaedc"> -35503.35066078 </i>
    <i name="eentropy">     -0.00000000 </i>
    <i name="bandstr">  -5241.14660519 </i>
    <i name="atom">  17312.70306276 </i>
    <i name="e_fr_energy">   -728.67724655 </i>
    <i name="e_wo_entrp">   -728.67724655 </i>
    <i name="e_0_energy">   -728.67724655 </i>
   </energy>
  </scstep>
  <structure>
   <crystal>
    <varray name="basis" >
     <v>      29.26569274       0.02680268       0.00000000 </v>
     <v>     -14.60941608      25.30067270       0.00000000 </v>
     <v>       0.00000000       0.00000000      20.00000000 </v>
    </varray>
    <i name="volume">  14816.66570071 </i>
    <varray name="rec_basis" >
     <v>       0.03415164       0.01972025       0.00000000 </v>
     <v>      -0.00003618       0.03950375       0.00000000 </v>
     <v>       0.00000000       0.00000000       0.05000000 </v>
    </varray>
   </crystal>
   <varray name="positions" >
    <v>       0.31199963       0.69856241       0.55634465 </v>
    <v>       0.38996771       0.69106185       0.55613678 </v>
    <v>       0.30452055       0.61299163       0.55645843 </v>
    <v>       0.22971323       0.62264724       0.55836448 </v>
    <v>       0.38034224       0.60649037       0.55883100 </v>
    <v>       0.39623009       0.77347427       0.55734895 </v>
    <v>       0.69035585       0.30105836       0.52142148 </v>
    <v>       0.61544852       0.31355481       0.52066325 </v>
    <v>       0.70274834       0.38856286       0.52131685 </v>
    <v>       0.77461928       0.37358812       0.52478904 </v>
    <v>       0.63013257       0.40036689       0.52412333 </v>
    <v>       0.60365794       0.22912453       0.52375154 </v>
    <v>       0.46015394       0.04393229       0.59071863 </v>
    <v>       0.43626621       0.86630709       0.64056022 </v>
    <v>       0.58552534       0.54129202       0.59454883 </v>
    <v>       0.43240468       0.56552517       0.64227796 </v>
    <v>       0.96040157       0.41600896       0.59067171 </v>
    <v>       0.13650622       0.57073066       0.64157435 </v>
    <v>       0.03237705       0.51004825       0.50980703 </v>
    <v>       0.28434449       0.64541253       0.55626426 </v>
    <v>       0.36449205       0.71874678       0.55580783 </v>
    <v>       0.35759681       0.63845012       0.55634353 </v>
    <v>       0.72048579       0.35403793       0.52127129 </v>
    <v>       0.63820111       0.28332481       0.52067477 </v>
    <v>       0.64984638       0.36581728       0.52074738 </v>
    <v>       0.41806655       0.85945267       0.51653274 </v>
    <v>       0.44353597       0.89018043       0.57322386 </v>
    <v>       0.47455464       0.94473235       0.57015723 </v>
    <v>       0.48088025       0.97093138       0.50912885 </v>
    <v>       0.51406573       0.02911350       0.50487562 </v>
    <v>       0.50615487       0.06412351       0.54525349 </v>
    <v>       0.53850042       0.11843572       0.54242997 </v>
    <v>       0.38773327       0.80161710       0.51571435 </v>
    <v>       0.44390938       0.58374881       0.51825818 </v>
    <v>       0.44904432       0.55820607       0.57500864 </v>
    <v>       0.47261361       0.52720502       0.57209942 </v>
    <v>       0.49272657       0.52103589       0.51119680 </v>
    <v>       0.51807321       0.48818616       0.50692282 </v>
    <v>       0.56064684       0.49597145       0.54777636 </v>
    <v>       0.58314775       0.46410515       0.54434551 </v>
    <v>       0.41664293       0.61429830       0.51709183 </v>
    <v>       0.14367167       0.55872538       0.51769286 </v>
    <v>       0.11285841       0.55375464       0.57417473 </v>
    <v>       0.05838116       0.53019312       0.57084441 </v>
    <v>       0.97426254       0.48475855       0.50540733 </v>
    <v>       0.93963465       0.44159457       0.54561100 </v>
    <v>       0.88535492       0.41925180       0.54287533 </v>
    <v>       0.20141170       0.58601183       0.51685217 </v>
    <v>       0.45602510       0.94115321       0.45184091 </v>
    <v>       0.42481695       0.88648968       0.45600342 </v>
    <v>       0.58055533       0.14031821       0.49680293 </v>
    <v>       0.58958610       0.10641000       0.45621522 </v>
    <v>       0.55694783       0.05183742       0.46049854 </v>
    <v>       0.61415690       0.19763221       0.49113809 </v>
    <v>       0.48784102       0.54587827       0.45383829 </v>
    <v>       0.46427382       0.57699490       0.45781603 </v>
    <v>       0.56386954       0.42268902       0.49772362 </v>
    <v>       0.52118441       0.41368167       0.45680612 </v>
    <v>       0.49874050       0.44584846       0.46162632 </v>
    <v>       0.58810749       0.38960046       0.49155485 </v>
    <v>       0.06224525       0.51479272       0.45271061 </v>
    <v>       0.11681305       0.53825478       0.45712320 </v>
    <v>       0.86316653       0.43929083       0.49740289 </v>
    <v>       0.89669094       0.48236910       0.45685326 </v>
    <v>       0.95123588       0.50471369       0.46112738 </v>
    <v>       0.80593001       0.41541033       0.49183154 </v>
    <v>       0.46801460       0.06387250       0.64715540 </v>
    <v>       0.39075127       0.84206847       0.66227760 </v>
    <v>       0.41710632       0.00934897       0.56850665 </v>
    <v>       0.47677241       0.87495685       0.67054809 </v>
    <v>       0.59730607       0.53258195       0.65070306 </v>
    <v>       0.45372989       0.61111739       0.66396749 </v>
    <v>       0.59358692       0.58460166       0.57361450 </v>
    <v>       0.40039644       0.52500103       0.67221645 </v>
    <v>       0.94098182       0.40397424       0.64735181 </v>
    <v>       0.16137546       0.55015484       0.66357627 </v>
    <v>       0.99494872       0.40770619       0.56783947 </v>
    <v>       0.12712474       0.60228051       0.67127017 </v>
    <v>       0.03640427       0.52766384       0.61605678 </v>
    <v>       0.04236950       0.49883850       0.40517480 </v>
    <v>       0.53093481       0.14416686       0.57433054 </v>
    <v>       0.49374134       0.96660072       0.61554278 </v>
    <v>       0.35832615       0.78368559       0.47525595 </v>
    <v>       0.61616305       0.47155146       0.57661345 </v>
    <v>       0.47524269       0.50800512       0.61753212 </v>
    <v>       0.42802383       0.64333173       0.47612140 </v>
    <v>       0.85990362       0.38579449       0.57467190 </v>
    <v>       0.21915006       0.57433710       0.47631696 </v>
    <v>       0.46029559       0.96117311       0.40430246 </v>
    <v>       0.40547108       0.86357643       0.41125025 </v>
    <v>       0.62264261       0.12304051       0.42123973 </v>
    <v>       0.56495826       0.02573517       0.42990630 </v>
    <v>       0.64844567       0.21242787       0.45729432 </v>
    <v>       0.50375847       0.54172028       0.40639612 </v>
    <v>       0.46076888       0.59636273       0.41301390 </v>
    <v>       0.50539468       0.38104725       0.42112472 </v>
    <v>       0.46487053       0.43788802       0.43068345 </v>
    <v>       0.56894156       0.35538038       0.45747987 </v>
    <v>       0.13980708       0.54162160       0.41253330 </v>
    <v>       0.87976100       0.49859623       0.42195874 </v>
    <v>       0.97703060       0.53896121       0.43061334 </v>
    <v>       0.79098941       0.43467262       0.45772622 </v>
   </varray>
  </structure>
  <varray name="forces" >
   <v>      -0.00147760       0.00106609       0.00096180 </v>
   <v>       0.00064175      -0.00170431       0.00271524 </v>
   <v>      -0.00023208      -0.00151603       0.00117214 </v>
   <v>       0.00289380      -0.00343880      -0.00310575 </v>
   <v>      -0.00078839       0.00214275       0.00074410 </v>
   <v>      -0.00047815      -0.00167532       0.00129163 </v>
   <v>       0.00219248      -0.00037518       0.00152535 </v>
   <v>      -0.00324239       0.00514654      -0.00103031 </v>
   <v>      -0.00349960       0.00183548       0.00076050 </v>
   <v>      -0.00018555      -0.00002032       0.00173847 </v>
   <v>       0.00765035      -0.00082519      -0.00146868 </v>
   <v>      -0.00073147       0.00327997       0.00045211 </v>
   <v>      -0.00403257      -0.00512716       0.00426056 </v>
   <v>      -0.00127523       0.00060107      -0.00090639 </v>
   <v>       0.00407555      -0.00348168       0.00729272 </v>
   <v>      -0.00110527       0.00230628       0.00251117 </v>
   <v>       0.00566281      -0.00140787      -0.00590886 </v>
   <v>       0.00951517      -0.00193623       0.00190794 </v>
   <v>       0.00083067      -0.00134041      -0.00173811 </v>
   <v>       0.00289312       0.00203780      -0.00015323 </v>
   <v>       0.00308706       0.00104075      -0.00117645 </v>
   <v>      -0.00137407       0.00082640      -0.00370694 </v>
   <v>       0.00367640      -0.00054769       0.00017823 </v>
   <v>      -0.00311664      -0.00132542      -0.00309438 </v>
   <v>       0.00314689      -0.00698855      -0.00391525 </v>
   <v>      -0.00014807      -0.00002818      -0.00017540 </v>
   <v>      -0.00019337      -0.00077164       0.00053134 </v>
   <v>       0.00237845       0.00042271      -0.00063532 </v>
   <v>      -0.00203311       0.00137778       0.00021228 </v>
   <v>      -0.00050778      -0.00061505      -0.00038065 </v>
   <v>      -0.00060859       0.00176280      -0.00132556 </v>
   <v>       0.00005780       0.00090945      -0.00020600 </v>
   <v>      -0.00005958       0.00132393      -0.00088146 </v>
   <v>      -0.00225735      -0.00135320      -0.00045942 </v>
   <v>       0.00115172       0.00078664       0.00199660 </v>
   <v>      -0.00022760      -0.00051671      -0.00053587 </v>
   <v>      -0.00117655       0.00086865       0.00009298 </v>
   <v>       0.00016095      -0.00064078       0.00043799 </v>
   <v>       0.00101875      -0.00109161      -0.00224147 </v>
   <v>       0.00067711      -0.00066032       0.00049109 </v>
   <v>       0.00001832      -0.00001001      -0.00187928 </v>
   <v>       0.00087515      -0.00044035       0.00012690 </v>
   <v>      -0.00060179      -0.00154042       0.00158984 </v>
   <v>      -0.00133614      -0.00120877      -0.00118229 </v>
   <v>       0.00115681       0.00308428      -0.00147140 </v>
   <v>      -0.00116682      -0.00200306      -0.00224757 </v>
   <v>      -0.00192945      -0.00009975       0.00121917 </v>
   <v>      -0.00097075       0.00105710       0.00110345 </v>
   <v>      -0.00146993       0.00185962       0.00011330 </v>
   <v>      -0.00053580      -0.00078425      -0.00092851 </v>
   <v>      -0.00053586       0.00112677      -0.00244555 </v>
   <v>      -0.00172173       0.00108337      -0.00055359 </v>
   <v>      -0.00180773      -0.00119320      -0.00013161 </v>
   <v>       0.00139217       0.00080279      -0.00074577 </v>
   <v>      -0.00045964       0.00220047      -0.00126859 </v>
   <v>      -0.00037819       0.00188844      -0.00018243 </v>
   <v>       0.00008839       0.00017311       0.00035115 </v>
   <v>      -0.00177582       0.00193237      -0.00080314 </v>
   <v>       0.00215072      -0.00128327      -0.00416317 </v>
   <v>       0.00199517       0.00041915       0.00035621 </v>
   <v>       0.00052625      -0.00070447       0.00106074 </v>
   <v>       0.00088375      -0.00022765      -0.00118875 </v>
   <v>       0.00207152      -0.00317601       0.00098679 </v>
   <v>       0.00223644      -0.00132878       0.00067849 </v>
   <v>       0.00146889      -0.00103398      -0.00041448 </v>
   <v>       0.00181240      -0.00085874       0.00013308 </v>
   <v>      -0.00042870       0.00285301      -0.00006439 </v>
   <v>      -0.00178317      -0.00220181       0.00021081 </v>
   <v>      -0.00040273       0.00174177       0.00675375 </v>
   <v>       0.00139458       0.00227348      -0.00004108 </v>
   <v>      -0.00016896       0.00229721      -0.00417542 </v>
   <v>      -0.00017615      -0.00373443      -0.00215507 </v>
   <v>       0.00174838       0.00547523       0.00053610 </v>
   <v>       0.00001656       0.00020432      -0.00138335 </v>
   <v>      -0.00126677      -0.00155313       0.00494846 </v>
   <v>      -0.00757925       0.00424071      -0.00039241 </v>
   <v>      -0.00291702      -0.00000955       0.00441856 </v>
   <v>       0.00028452      -0.00014378       0.00218406 </v>
   <v>      -0.00014532      -0.00132281       0.00085387 </v>
   <v>       0.00074869      -0.00144543      -0.00032487 </v>
   <v>      -0.00149781      -0.00008024       0.00087554 </v>
   <v>      -0.00169512       0.00068834       0.00062748 </v>
   <v>      -0.00121607      -0.00097185       0.00002352 </v>
   <v>      -0.00102240       0.00087142      -0.00068495 </v>
   <v>      -0.00058190       0.00023174       0.00014308 </v>
   <v>       0.00040570      -0.00013192       0.00093787 </v>
   <v>      -0.00112951       0.00057853      -0.00037532 </v>
   <v>      -0.00086482       0.00039729       0.00322523 </v>
   <v>      -0.00151592      -0.00087536       0.00045236 </v>
   <v>      -0.00255894      -0.00078309      -0.00157601 </v>
   <v>      -0.00364242      -0.00035999      -0.00008132 </v>
   <v>      -0.00261091       0.00047421      -0.00018984 </v>
   <v>      -0.00242727      -0.00057093      -0.00036876 </v>
   <v>       0.00067067      -0.00020299      -0.00145730 </v>
   <v>       0.00100290       0.00009282      -0.00020035 </v>
   <v>       0.00067910       0.00265107       0.00138967 </v>
   <v>       0.00156904       0.00186970      -0.00009925 </v>
   <v>      -0.00082500       0.00308991      -0.00024581 </v>
   <v>       0.00042935      -0.00105614       0.00151846 </v>
   <v>       0.00099362      -0.00133855      -0.00044122 </v>
   <v>       0.00200142      -0.00116948      -0.00186744 </v>
   <v>      -0.00043452      -0.00216150       0.00068362 </v>
  </varray>
  <varray name="stress" >
   <v>      -0.00121734       0.00399117      -0.00541724 </v>
   <v>       0.00399117      -0.00482307      -0.00455547 </v>
   <v>      -0.00541724      -0.00455547      -0.17130176 </v>
  </varray>
  <energy>
   <i name="e_fr_energy">   -730.74807490 </i>
   <i name="e_wo_entrp">   -730.74807490 </i>
   <i name="e_0_energy">     -0.00000000 </i>
  </energy>
  <time name="totalsc"> 2534.37 2559.43</time>
  <eigenvalues>
   <array>
    <dimension dim="1">band</dimension>
    <dimension dim="2">kpoint</dimension>
    <dimension dim="3">spin</dimension>
    <field>eigene</field>
    <field>occ</field>
    <set>
     <set comment="spin 1">
      <set comment="kpoint 1">
       <r>  -30.9477    1.0000 </r>
       <r>  -30.9474    1.0000 </r>
       <r>  -30.9438    1.0000 </r>
       <r>  -30.6165    1.0000 </r>
       <r>  -30.6146    1.0000 </r>
       <r>  -30.6135    1.0000 </r>
       <r>  -26.5817    1.0000 </r>
       <r>  -26.5804    1.0000 </r>
       <r>  -26.5746    1.0000 </r>
       <r>  -26.2688    1.0000 </r>
       <r>  -26.2677    1.0000 </r>
       <r>  -26.2666    1.0000 </r>
       <r>  -26.0952    1.0000 </r>
       <r>  -25.8295    1.0000 </r>
       <r>  -24.3467    1.0000 </r>
       <r>  -24.3454    1.0000 </r>
       <r>  -24.1539    1.0000 </r>
       <r>  -24.1496    1.0000 </r>
       <r>  -23.2816    1.0000 </r>
       <r>  -23.1174    1.0000 </r>
       <r>  -22.8319    1.0000 </r>
       <r>  -22.8308    1.0000 </r>
       <r>  -22.6930    1.0000 </r>
       <r>  -22.3922    1.0000 </r>
       <r>  -22.3905    1.0000 </r>
       <r>  -22.1678    1.0000 </r>
       <r>  -22.0068    1.0000 </r>
       <r>  -22.0028    1.0000 </r>
       <r>  -21.7116    1.0000 </r>
       <r>  -21.7099    1.0000 </r>
       <r>  -20.6234    1.0000 </r>
       <r>  -20.6224    1.0000 </r>
       <r>  -20.6149    1.0000 </r>
       <r>  -20.3423    1.0000 </r>
       <r>  -20.3395    1.0000 </r>
       <r>  -20.3376    1.0000 </r>
       <r>  -19.9268    1.0000 </r>
       <r>  -19.9245    1.0000 </r>
       <r>  -19.9177    1.0000 </r>
       <r>  -19.3686    1.0000 </r>
       <r>  -19.3682    1.0000 </r>
       <r>  -19.2782    1.0000 </r>
       <r>  -18.0541    1.0000 </r>
       <r>  -18.0509    1.0000 </r>
       <r>  -17.7673    1.0000 </r>
       <r>  -17.7419    1.0000 </r>
       <r>  -17.7393    1.0000 </r>
       <r>  -17.6733    1.0000 </r>
       <r>  -17.6205    1.0000 </r>
       <r>  -17.6173    1.0000 </r>
       <r>  -17.3264    1.0000 </r>
       <r>  -17.0926    1.0000 </r>
       <r>  -17.0903    1.0000 </r>
       <r>  -16.3776    1.0000 </r>
       <r>  -16.3230    1.0000 </r>
       <r>  -16.3219    1.0000 </r>
       <r>  -15.7855    1.0000 </r>
       <r>  -15.7444    1.0000 </r>
       <r>  -15.7398    1.0000 </r>
       <r>  -15.5683    1.0000 </r>
       <r>  -15.2677    1.0000 </r>
       <r>  -15.2645    1.0000 </r>
       <r>  -14.9700    1.0000 </r>
       <r>  -14.9694    1.0000 </r>
       <r>  -14.9537    1.0000 </r>
       <r>  -14.5723    1.0000 </r>
       <r>  -14.3389    1.0000 </r>
       <r>  -14.3370    1.0000 </r>
       <r>  -14.1310    1.0000 </r>
       <r>  -14.1298    1.0000 </r>
       <r>  -14.0997    1.0000 </r>
       <r>  -13.8806    1.0000 </r>
       <r>  -13.8319    1.0000 </r>
       <r>  -13.6960    1.0000 </r>
       <r>  -13.6946    1.0000 </r>
       <r>  -13.6413    1.0000 </r>
       <r>  -13.5244    1.0000 </r>
       <r>  -13.4017    1.0000 </r>
       <r>  -13.4007    1.0000 </r>
       <r>  -13.3100    1.0000 </r>
       <r>  -13.2677    1.0000 </r>
       <r>  -13.2649    1.0000 </r>
       <r>  -13.0820    1.0000 </r>
       <r>  -12.9546    1.0000 </r>
       <r>  -12.9535    1.0000 </r>
       <r>  -12.7673    1.0000 </r>
       <r>  -12.7450    1.0000 </r>
       <r>  -12.7414    1.0000 </r>
       <r>  -12.6569    1.0000 </r>
       <r>  -12.6552    1.0000 </r>
       <r>  -12.6331    1.0000 </r>
       <r>  -12.5817    1.0000 </r>
       <r>  -12.4059    1.0000 </r>
       <r>  -12.4045    1.0000 </r>
       <r>  -12.3507    1.0000 </r>
       <r>  -12.3390    1.0000 </r>
       <r>  -12.3366    1.0000 </r>
       <r>  -12.2677    1.0000 </r>
       <r>  -12.2225    1.0000 </r>
       <r>  -12.2212    1.0000 </r>
       <r>  -12.0147    1.0000 </r>
       <r>  -12.0132    1.0000 </r>
       <r>  -11.9910    1.0000 </r>
       <r>  -11.7447    1.0000 </r>
       <r>  -11.6293    1.0000 </r>
       <r>  -11.6263    1.0000 </r>
       <r>  -11.5222    1.0000 </r>
       <r>  -11.4526    1.0000 </r>
       <r>  -11.4512    1.0000 </r>
       <r>  -11.3375    1.0000 </r>
       <r>  -11.3330    1.0000 </r>
       <r>  -11.2995    1.0000 </r>
       <r>  -11.2612    1.0000 </r>
       <r>  -11.2597    1.0000 </r>
       <r>  -11.2293    1.0000 </r>
       <r>  -11.1962    1.0000 </r>
       <r>  -11.0249    1.0000 </r>
       <r>  -11.0228    1.0000 </r>
       <r>  -10.6590    1.0000 </r>
       <r>  -10.4665    1.0000 </r>
       <r>  -10.4639    1.0000 </r>
       <r>  -10.3986    1.0000 </r>
       <r>  -10.3491    1.0000 </r>
       <r>  -10.3458    1.0000 </r>
       <r>  -10.1444    1.0000 </r>
       <r>  -10.1422    1.0000 </r>
       <r>  -10.0747    1.0000 </r>
       <r>   -9.9520    1.0000 </r>
       <r>   -9.6500    1.0000 </r>
       <r>   -9.6469    1.0000 </r>
       <r>   -9.6145    1.0000 </r>
       <r>   -9.5946    1.0000 </r>
       <r>   -9.5935    1.0000 </r>
       <r>   -9.5748    1.0000 </r>
       <r>   -9.4154    1.0000 </r>
       <r>   -9.4143    1.0000 </r>
       <r>   -9.2293    1.0000 </r>
       <r>   -9.2193    1.0000 </r>
       <r>   -9.2183    1.0000 </r>
       <r>   -9.1174    1.0000 </r>
       <r>   -8.9918    1.0000 </r>
       <r>   -8.9896    1.0000 </r>
       <r>   -8.9176    1.0000 </r>
       <r>   -8.8398    1.0000 </r>
       <r>   -8.4430    1.0000 </r>
       <r>   -8.2619    1.0000 </r>
       <r>   -8.2581    1.0000 </r>
       <r>   -7.9826    1.0000 </r>
       <r>   -7.9786    1.0000 </r>
       <r>   -7.8211    1.0000 </r>
       <r>   -7.7975    1.0000 </r>
       <r>   -7.7949    1.0000 </r>
       <r>   -7.6355    1.0000 </r>
       <r>   -7.6308    1.0000 </r>
       <r>   -7.6298    1.0000 </r>
       <r>   -7.5500    1.0000 </r>
       <r>   -7.5402    1.0000 </r>
       <r>   -7.5366    1.0000 </r>
       <r>   -7.3862    1.0000 </r>
       <r>   -7.3839    1.0000 </r>
       <r>   -7.3748    1.0000 </r>
       <r>   -7.3580    1.0000 </r>
       <r>   -7.3544    1.0000 </r>
       <r>   -7.3320    1.0000 </r>
       <r>   -7.0667    1.0000 </r>
       <r>   -7.0595    1.0000 </r>
       <r>   -7.0559    1.0000 </r>
       <r>   -6.8962    1.0000 </r>
       <r>   -6.8950    1.0000 </r>
       <r>   -6.8768    1.0000 </r>
       <r>   -6.7261    1.0000 </r>
       <r>   -6.7250    1.0000 </r>
       <r>   -6.7204    1.0000 </r>
       <r>   -6.6667    1.0000 </r>
       <r>   -6.6617    1.0000 </r>
       <r>   -6.6520    1.0000 </r>
       <r>   -6.5510    1.0000 </r>
       <r>   -6.5205    1.0000 </r>
       <r>   -6.5184    1.0000 </r>
       <r>   -6.5044    1.0000 </r>
       <r>   -6.3530    1.0000 </r>
       <r>   -6.3510    1.0000 </r>
       <r>   -6.3179    1.0000 </r>
       <r>   -6.3166    1.0000 </r>
       <r>   -6.2661    1.0000 </r>
       <r>   -6.2470    1.0000 </r>
       <r>   -6.2445    1.0000 </r>
       <r>   -6.0309    1.0000 </r>
       <r>   -6.0230    1.0000 </r>
       <r>   -3.7117    0.0000 </r>
       <r>   -3.7051    0.0000 </r>
       <r>   -3.5585    0.0000 </r>
       <r>   -3.4440    0.0000 </r>
       <r>   -3.4417    0.0000 </r>
       <r>   -3.3128    0.0000 </r>
       <r>   -3.2519    0.0000 </r>
       <r>   -3.2460    0.0000 </r>
       <r>   -3.0475    0.0000 </r>
       <r>   -2.7754    0.0000 </r>
       <r>   -2.7723    0.0000 </r>
       <r>   -2.5878    0.0000 </r>
       <r>   -2.0171    0.0000 </r>
       <r>   -2.0157    0.0000 </r>
       <r>   -1.9390    0.0000 </r>
       <r>   -1.8412    0.0000 </r>
       <r>   -1.8401    0.0000 </r>
       <r>   -1.8155    0.0000 </r>
       <r>   -1.7004    0.0000 </r>
       <r>   -1.6967    0.0000 </r>
       <r>   -1.3735    0.0000 </r>
       <r>   -1.3690    0.0000 </r>
       <r>   -1.0440    0.0000 </r>
       <r>   -0.6893    0.0000 </r>
       <r>   -0.6025    0.0000 </r>
       <r>   -0.6005    0.0000 </r>
       <r>   -0.5340    0.0000 </r>
       <r>   -0.5247    0.0000 </r>
       <r>   -0.5232    0.0000 </r>
       <r>   -0.4297    0.0000 </r>
       <r>   -0.3387    0.0000 </r>
       <r>   -0.3336    0.0000 </r>
       <r>   -0.1561    0.0000 </r>
       <r>   -0.1554    0.0000 </r>
       <r>   -0.0670    0.0000 </r>
       <r>    0.0664    0.0000 </r>
       <r>    0.1097    0.0000 </r>
       <r>    0.1100    0.0000 </r>
       <r>    0.1759    0.0000 </r>
       <r>    0.2544    0.0000 </r>
       <r>    0.2564    0.0000 </r>
       <r>    0.3464    0.0000 </r>
       <r>    0.3481    0.0000 </r>
       <r>    0.4530    0.0000 </r>
       <r>    0.4975    0.0000 </r>
       <r>    0.4996    0.0000 </r>
       <r>    0.5012    0.0000 </r>
       <r>    0.5268    0.0000 </r>
       <r>    0.5798    0.0000 </r>
       <r>    0.6343    0.0000 </r>
       <r>    0.6819    0.0000 </r>
       <r>    0.6847    0.0000 </r>
       <r>    0.7404    0.0000 </r>
       <r>    0.7417    0.0000 </r>
       <r>    0.7623    0.0000 </r>
       <r>    0.8119    0.0000 </r>
       <r>    0.8129    0.0000 </r>
       <r>    0.8376    0.0000 </r>
       <r>    0.8523    0.0000 </r>
       <r>    0.8532    0.0000 </r>
       <r>    0.8783    0.0000 </r>
       <r>    0.9467    0.0000 </r>
       <r>    0.9477    0.0000 </r>
       <r>    0.9522    0.0000 </r>
       <r>    0.9837    0.0000 </r>
       <r>    0.9846    0.0000 </r>
       <r>    0.9855    0.0000 </r>
      </set>
      <set comment="kpoint 2">
       <r>  -30.9477    1.0000 </r>
       <r>  -30.9474    1.0000 </r>
       <r>  -30.9438    1.0000 </r>
       <r>  -30.6165    1.0000 </r>
       <r>  -30.6146    1.0000 </r>
       <r>  -30.6135    1.0000 </r>
       <r>  -26.5817    1.0000 </r>
       <r>  -26.5804    1.0000 </r>
       <r>  -26.5746    1.0000 </r>
       <r>  -26.2688    1.0000 </r>
       <r>  -26.2677    1.0000 </r>
       <r>  -26.2666    1.0000 </r>
       <r>  -26.0952    1.0000 </r>
       <r>  -25.8295    1.0000 </r>
       <r>  -24.3467    1.0000 </r>
       <r>  -24.3454    1.0000 </r>
       <r>  -24.1539    1.0000 </r>
       <r>  -24.1496    1.0000 </r>
       <r>  -23.2816    1.0000 </r>
       <r>  -23.1174    1.0000 </r>
       <r>  -22.8318    1.0000 </r>
       <r>  -22.8307    1.0000 </r>
       <r>  -22.6932    1.0000 </r>
       <r>  -22.3922    1.0000 </r>
       <r>  -22.3902    1.0000 </r>
       <r>  -22.1682    1.0000 </r>
       <r>  -22.0068    1.0000 </r>
       <r>  -22.0026    1.0000 </r>
       <r>  -21.7117    1.0000 </r>
       <r>  -21.7099    1.0000 </r>
       <r>  -20.6234    1.0000 </r>
       <r>  -20.6224    1.0000 </r>
       <r>  -20.6149    1.0000 </r>
       <r>  -20.3423    1.0000 </r>
       <r>  -20.3395    1.0000 </r>
       <r>  -20.3376    1.0000 </r>
       <r>  -19.9268    1.0000 </r>
       <r>  -19.9245    1.0000 </r>
       <r>  -19.9177    1.0000 </r>
       <r>  -19.3686    1.0000 </r>
       <r>  -19.3681    1.0000 </r>
       <r>  -19.2783    1.0000 </r>
       <r>  -18.0541    1.0000 </r>
       <r>  -18.0506    1.0000 </r>
       <r>  -17.7681    1.0000 </r>
       <r>  -17.7417    1.0000 </r>
       <r>  -17.7392    1.0000 </r>
       <r>  -17.6736    1.0000 </r>
       <r>  -17.6205    1.0000 </r>
       <r>  -17.6170    1.0000 </r>
       <r>  -17.3266    1.0000 </r>
       <r>  -17.0923    1.0000 </r>
       <r>  -17.0897    1.0000 </r>
       <r>  -16.3845    1.0000 </r>
       <r>  -16.3220    1.0000 </r>
       <r>  -16.3162    1.0000 </r>
       <r>  -15.7855    1.0000 </r>
       <r>  -15.7444    1.0000 </r>
       <r>  -15.7398    1.0000 </r>
       <r>  -15.5685    1.0000 </r>
       <r>  -15.2676    1.0000 </r>
       <r>  -15.2645    1.0000 </r>
       <r>  -14.9763    1.0000 </r>
       <r>  -14.9696    1.0000 </r>
       <r>  -14.9468    1.0000 </r>
       <r>  -14.5727    1.0000 </r>
       <r>  -14.3389    1.0000 </r>
       <r>  -14.3370    1.0000 </r>
       <r>  -14.1310    1.0000 </r>
       <r>  -14.1299    1.0000 </r>
       <r>  -14.0997    1.0000 </r>
       <r>  -13.8804    1.0000 </r>
       <r>  -13.8318    1.0000 </r>
       <r>  -13.6960    1.0000 </r>
       <r>  -13.6945    1.0000 </r>
       <r>  -13.6414    1.0000 </r>
       <r>  -13.5254    1.0000 </r>
       <r>  -13.4012    1.0000 </r>
       <r>  -13.4006    1.0000 </r>
       <r>  -13.3101    1.0000 </r>
       <r>  -13.2677    1.0000 </r>
       <r>  -13.2645    1.0000 </r>
       <r>  -13.0821    1.0000 </r>
       <r>  -12.9546    1.0000 </r>
       <r>  -12.9535    1.0000 </r>
       <r>  -12.7674    1.0000 </r>
       <r>  -12.7450    1.0000 </r>
       <r>  -12.7414    1.0000 </r>
       <r>  -12.6569    1.0000 </r>
       <r>  -12.6553    1.0000 </r>
       <r>  -12.6330    1.0000 </r>
       <r>  -12.5817    1.0000 </r>
       <r>  -12.4060    1.0000 </r>
       <r>  -12.4046    1.0000 </r>
       <r>  -12.3507    1.0000 </r>
       <r>  -12.3389    1.0000 </r>
       <r>  -12.3365    1.0000 </r>
       <r>  -12.2677    1.0000 </r>
       <r>  -12.2225    1.0000 </r>
       <r>  -12.2212    1.0000 </r>
       <r>  -12.0165    1.0000 </r>
       <r>  -12.0140    1.0000 </r>
       <r>  -11.9882    1.0000 </r>
       <r>  -11.7446    1.0000 </r>
       <r>  -11.6293    1.0000 </r>
       <r>  -11.6265    1.0000 </r>
       <r>  -11.5225    1.0000 </r>
       <r>  -11.4525    1.0000 </r>
       <r>  -11.4513    1.0000 </r>
       <r>  -11.3376    1.0000 </r>
       <r>  -11.3330    1.0000 </r>
       <r>  -11.2995    1.0000 </r>
       <r>  -11.2613    1.0000 </r>
       <r>  -11.2597    1.0000 </r>
       <r>  -11.2291    1.0000 </r>
       <r>  -11.1962    1.0000 </r>
       <r>  -11.0249    1.0000 </r>
       <r>  -11.0223    1.0000 </r>
       <r>  -10.6598    1.0000 </r>
       <r>  -10.4663    1.0000 </r>
       <r>  -10.4639    1.0000 </r>
       <r>  -10.3987    1.0000 </r>
       <r>  -10.3491    1.0000 </r>
       <r>  -10.3454    1.0000 </r>
       <r>  -10.1446    1.0000 </r>
       <r>  -10.1422    1.0000 </r>
       <r>  -10.0746    1.0000 </r>
       <r>   -9.9520    1.0000 </r>
       <r>   -9.6500    1.0000 </r>
       <r>   -9.6470    1.0000 </r>
       <r>   -9.6146    1.0000 </r>
       <r>   -9.5945    1.0000 </r>
       <r>   -9.5934    1.0000 </r>
       <r>   -9.5748    1.0000 </r>
       <r>   -9.4154    1.0000 </r>
       <r>   -9.4143    1.0000 </r>
       <r>   -9.2297    1.0000 </r>
       <r>   -9.2189    1.0000 </r>
       <r>   -9.2183    1.0000 </r>
       <r>   -9.1175    1.0000 </r>
       <r>   -8.9920    1.0000 </r>
       <r>   -8.9896    1.0000 </r>
       <r>   -8.9176    1.0000 </r>
       <r>   -8.8393    1.0000 </r>
       <r>   -8.4438    1.0000 </r>
       <r>   -8.2619    1.0000 </r>
       <r>   -8.2574    1.0000 </r>
       <r>   -7.9826    1.0000 </r>
       <r>   -7.9788    1.0000 </r>
       <r>   -7.8211    1.0000 </r>
       <r>   -7.7975    1.0000 </r>
       <r>   -7.7949    1.0000 </r>
       <r>   -7.6355    1.0000 </r>
       <r>   -7.6308    1.0000 </r>
       <r>   -7.6298    1.0000 </r>
       <r>   -7.5500    1.0000 </r>
       <r>   -7.5402    1.0000 </r>
       <r>   -7.5366    1.0000 </r>
       <r>   -7.3862    1.0000 </r>
       <r>   -7.3839    1.0000 </r>
       <r>   -7.3748    1.0000 </r>
       <r>   -7.3580    1.0000 </r>
       <r>   -7.3544    1.0000 </r>
       <r>   -7.3320    1.0000 </r>
       <r>   -7.0669    1.0000 </r>
       <r>   -7.0595    1.0000 </r>
       <r>   -7.0557    1.0000 </r>
       <r>   -6.8962    1.0000 </r>
       <r>   -6.8950    1.0000 </r>
       <r>   -6.8768    1.0000 </r>
       <r>   -6.7260    1.0000 </r>
       <r>   -6.7250    1.0000 </r>
       <r>   -6.7203    1.0000 </r>
       <r>   -6.6667    1.0000 </r>
       <r>   -6.6617    1.0000 </r>
       <r>   -6.6520    1.0000 </r>
       <r>   -6.5512    1.0000 </r>
       <r>   -6.5206    1.0000 </r>
       <r>   -6.5186    1.0000 </r>
       <r>   -6.5040    1.0000 </r>
       <r>   -6.3530    1.0000 </r>
       <r>   -6.3510    1.0000 </r>
       <r>   -6.3179    1.0000 </r>
       <r>   -6.3166    1.0000 </r>
       <r>   -6.2660    1.0000 </r>
       <r>   -6.2470    1.0000 </r>
       <r>   -6.2445    1.0000 </r>
       <r>   -6.0309    1.0000 </r>
       <r>   -6.0230    1.0000 </r>
       <r>   -3.7116    0.0000 </r>
       <r>   -3.7049    0.0000 </r>
       <r>   -3.5587    0.0000 </r>
       <r>   -3.4440    0.0000 </r>
       <r>   -3.4417    0.0000 </r>
       <r>   -3.3138    0.0000 </r>
       <r>   -3.2508    0.0000 </r>
       <r>   -3.2459    0.0000 </r>
       <r>   -3.0476    0.0000 </r>
       <r>   -2.7754    0.0000 </r>
       <r>   -2.7722    0.0000 </r>
       <r>   -2.5880    0.0000 </r>
       <r>   -2.0170    0.0000 </r>
       <r>   -2.0157    0.0000 </r>
       <r>   -1.9390    0.0000 </r>
       <r>   -1.8412    0.0000 </r>
       <r>   -1.8401    0.0000 </r>
       <r>   -1.8155    0.0000 </r>
       <r>   -1.7004    0.0000 </r>
       <r>   -1.6963    0.0000 </r>
       <r>   -1.3742    0.0000 </r>
       <r>   -1.3691    0.0000 </r>
       <r>   -1.0432    0.0000 </r>
       <r>   -0.6898    0.0000 </r>
       <r>   -0.6027    0.0000 </r>
       <r>   -0.6009    0.0000 </r>
       <r>   -0.5332    0.0000 </r>
       <r>   -0.5248    0.0000 </r>
       <r>   -0.5234    0.0000 </r>
       <r>   -0.4292    0.0000 </r>
       <r>   -0.3388    0.0000 </r>
       <r>   -0.3336    0.0000 </r>
       <r>   -0.1564    0.0000 </r>
       <r>   -0.1558    0.0000 </r>
       <r>   -0.0665    0.0000 </r>
       <r>    0.0662    0.0000 </r>
       <r>    0.1096    0.0000 </r>
       <r>    0.1099    0.0000 </r>
       <r>    0.1762    0.0000 </r>
       <r>    0.2546    0.0000 </r>
       <r>    0.2565    0.0000 </r>
       <r>    0.3465    0.0000 </r>
       <r>    0.3482    0.0000 </r>
       <r>    0.4530    0.0000 </r>
       <r>    0.4971    0.0000 </r>
       <r>    0.4995    0.0000 </r>
       <r>    0.5017    0.0000 </r>
       <r>    0.5271    0.0000 </r>
       <r>    0.5800    0.0000 </r>
       <r>    0.6342    0.0000 </r>
       <r>    0.6817    0.0000 </r>
       <r>    0.6843    0.0000 </r>
       <r>    0.7401    0.0000 </r>
       <r>    0.7407    0.0000 </r>
       <r>    0.7634    0.0000 </r>
       <r>    0.8110    0.0000 </r>
       <r>    0.8123    0.0000 </r>
       <r>    0.8380    0.0000 </r>
       <r>    0.8524    0.0000 </r>
       <r>    0.8536    0.0000 </r>
       <r>    0.8786    0.0000 </r>
       <r>    0.9455    0.0000 </r>
       <r>    0.9463    0.0000 </r>
       <r>    0.9531    0.0000 </r>
       <r>    0.9817    0.0000 </r>
       <r>    0.9857    0.0000 </r>
       <r>    0.9883    0.0000 </r>
      </set>
      <set comment="kpoint 3">
       <r>  -30.9477    1.0000 </r>
       <r>  -30.9474    1.0000 </r>
       <r>  -30.9438    1.0000 </r>
       <r>  -30.6165    1.0000 </r>
       <r>  -30.6146    1.0000 </r>
       <r>  -30.6135    1.0000 </r>
       <r>  -26.5817    1.0000 </r>
       <r>  -26.5804    1.0000 </r>
       <r>  -26.5746    1.0000 </r>
       <r>  -26.2688    1.0000 </r>
       <r>  -26.2677    1.0000 </r>
       <r>  -26.2666    1.0000 </r>
       <r>  -26.0952    1.0000 </r>
       <r>  -25.8295    1.0000 </r>
       <r>  -24.3467    1.0000 </r>
       <r>  -24.3454    1.0000 </r>
       <r>  -24.1539    1.0000 </r>
       <r>  -24.1496    1.0000 </r>
       <r>  -23.2816    1.0000 </r>
       <r>  -23.1175    1.0000 </r>
       <r>  -22.8316    1.0000 </r>
       <r>  -22.8305    1.0000 </r>
       <r>  -22.6940    1.0000 </r>
       <r>  -22.3922    1.0000 </r>
       <r>  -22.3892    1.0000 </r>
[...]
       <r>   -27.9722     0.0000    12.0000 </r>
       <r>   -27.8548     0.0000    12.0000 </r>
       <r>   -27.7375     0.0000    12.0000 </r>
       <r>   -27.6202     0.0000    12.0000 </r>
       <r>   -27.5029     0.0000    12.0000 </r>
       <r>   -27.3856     0.0000    12.0000 </r>
       <r>   -27.2683     0.0000    12.0000 </r>
       <r>   -27.1510     0.0000    12.0000 </r>
       <r>   -27.0336     0.0000    12.0000 </r>
       <r>   -26.9163     0.0000    12.0000 </r>
       <r>   -26.7990     0.0000    12.0000 </r>
       <r>   -26.6817     0.0000    12.0000 </r>
       <r>   -26.5644    49.5414    17.8119 </r>
       <r>   -26.4471     0.0000    18.0000 </r>
       <r>   -26.3298     0.0000    18.0000 </r>
       <r>   -26.2125    51.1448    24.0000 </r>
       <r>   -26.0951     8.6004    25.0089 </r>
       <r>   -25.9778     0.0000    26.0000 </r>
       <r>   -25.8605     0.0001    26.0000 </r>
       <r>   -25.7432     0.0000    28.0000 </r>
       <r>   -25.6259     0.0000    28.0000 </r>
       <r>   -25.5086     0.0000    28.0000 </r>
       <r>   -25.3913     0.0000    28.0000 </r>
       <r>   -25.2739     0.0000    28.0000 </r>
       <r>   -25.1566     0.0000    28.0000 </r>
       <r>   -25.0393     0.0000    28.0000 </r>
       <r>   -24.9220     0.0000    28.0000 </r>
       <r>   -24.8047     0.0000    28.0000 </r>
       <r>   -24.6874     0.0000    28.0000 </r>
       <r>   -24.5701     0.0000    28.0000 </r>
       <r>   -24.4527     0.0000    28.0000 </r>
       <r>   -24.3354    31.7925    31.7297 </r>
       <r>   -24.2181     0.0000    32.0000 </r>
       <r>   -24.1008    34.0965    36.0000 </r>
       <r>   -23.9835     0.0000    36.0000 </r>
       <r>   -23.8662     0.0000    36.0000 </r>
       <r>   -23.7489     0.0000    36.0000 </r>
       <r>   -23.6315     0.0000    36.0000 </r>
       <r>   -23.5142     0.0000    36.0000 </r>
       <r>   -23.3969     0.0000    36.0000 </r>
       <r>   -23.2796     9.8769    37.1587 </r>
       <r>   -23.1623     0.0000    38.0000 </r>
       <r>   -23.0450    17.0483    40.0000 </r>
       <r>   -22.9277     0.0000    40.0000 </r>
       <r>   -22.8103    23.8471    42.7976 </r>
       <r>   -22.6930    15.7301    45.8454 </r>
       <r>   -22.5757     0.0000    46.0000 </r>
       <r>   -22.4584     0.0000    46.0000 </r>
       <r>   -22.3411    24.9770    48.9302 </r>
       <r>   -22.2238     9.4446    51.1080 </r>
       <r>   -22.1065     3.9779    52.0000 </r>
       <r>   -21.9891    21.6636    54.5414 </r>
       <r>   -21.8718     0.0000    56.0000 </r>
       <r>   -21.7545     0.0000    56.0000 </r>
       <r>   -21.6372    27.8455    60.0000 </r>
       <r>   -21.5199     0.0000    60.0000 </r>
       <r>   -21.4026     0.0000    60.0000 </r>
       <r>   -21.2853     0.0000    60.0000 </r>
       <r>   -21.1679     0.0000    60.0000 </r>
       <r>   -21.0506     0.0000    60.0000 </r>
       <r>   -20.9333     0.0000    60.0000 </r>
       <r>   -20.8160     0.0000    60.0000 </r>
       <r>   -20.6987     0.0000    60.0000 </r>
       <r>   -20.5814    51.1448    66.0000 </r>
       <r>   -20.4641     0.0000    66.0000 </r>
       <r>   -20.3468     8.7488    67.0264 </r>
       <r>   -20.2294     0.0000    72.0000 </r>
       <r>   -20.1121     0.0000    72.0000 </r>
       <r>   -19.9948     0.0000    72.0000 </r>
       <r>   -19.8775    51.1448    78.0000 </r>
       <r>   -19.7602     0.0000    78.0000 </r>
       <r>   -19.6429     0.0000    78.0000 </r>
       <r>   -19.5256     0.0000    78.0000 </r>
       <r>   -19.4082     0.0000    78.0000 </r>
       <r>   -19.2909    45.7792    83.3705 </r>
       <r>   -19.1736     0.0000    84.0000 </r>
       <r>   -19.0563     0.0000    84.0000 </r>
       <r>   -18.9390     0.0000    84.0000 </r>
       <r>   -18.8217     0.0000    84.0000 </r>
       <r>   -18.7044     0.0000    84.0000 </r>
       <r>   -18.5870     0.0000    84.0000 </r>
       <r>   -18.4697     0.0000    84.0000 </r>
       <r>   -18.3524     0.0000    84.0000 </r>
       <r>   -18.2351     0.0000    84.0000 </r>
       <r>   -18.1178     0.0000    84.0000 </r>
       <r>   -18.0005    24.4751    86.8713 </r>
       <r>   -17.8832     7.8775    88.6241 </r>
       <r>   -17.7658     6.1768    89.9246 </r>
       <r>   -17.6485    25.8567    96.0000 </r>
       <r>   -17.5312    14.2069   100.0000 </r>
       <r>   -17.4139     0.0000   100.0000 </r>
       <r>   -17.2966    17.0482   102.0000 </r>
       <r>   -17.1793     0.0000   102.0000 </r>
       <r>   -17.0620    20.5748   104.4137 </r>
       <r>   -16.9446     6.1247   105.3518 </r>
       <r>   -16.8273     0.0000   106.0000 </r>
       <r>   -16.7100     0.0004   106.0001 </r>
       <r>   -16.5927     6.5730   107.2044 </r>
       <r>   -16.4754     2.2397   107.5961 </r>
       <r>   -16.3581     2.5556   107.9998 </r>
       <r>   -16.2408     2.5769   110.3690 </r>
       <r>   -16.1234     2.9920   110.8510 </r>
       <r>   -16.0061     5.1145   112.0000 </r>
       <r>   -15.8888     0.0000   112.0000 </r>
       <r>   -15.7715    16.9626   113.9899 </r>
       <r>   -15.6542     0.0000   118.0000 </r>
       <r>   -15.5369    17.0483   120.0000 </r>
       <r>   -15.4196     0.0000   120.0000 </r>
       <r>   -15.3023     0.0000   120.0000 </r>
       <r>   -15.1849    17.0483   124.0000 </r>
       <r>   -15.0676    11.0996   125.3021 </r>
       <r>   -14.9503    21.2470   128.0592 </r>
       <r>   -14.8330     3.2508   128.6480 </r>
       <r>   -14.7157     8.2813   129.8382 </r>
       <r>   -14.5984     9.7219   131.4405 </r>
       <r>   -14.4811     0.0000   132.0000 </r>
       <r>   -14.3637     0.0031   132.0004 </r>
       <r>   -14.2464     3.9779   136.0000 </r>
       <r>   -14.1291    23.4466   138.7506 </r>
       <r>   -14.0118     0.0000   142.0000 </r>
       <r>   -13.8945     0.0509   142.0060 </r>
       <r>   -13.7772    26.1304   145.9988 </r>
       <r>   -13.6599    35.6025   150.1767 </r>
       <r>   -13.5425     5.2963   153.6880 </r>
       <r>   -13.4252     0.0287   154.0034 </r>
       <r>   -13.3079    27.1355   159.5500 </r>
       <r>   -13.1906    26.5963   163.1201 </r>
       <r>   -13.0733    16.7940   165.9702 </r>
       <r>   -12.9560    10.0326   167.1770 </r>
       <r>   -12.8387     0.0000   170.0000 </r>
       <r>   -12.7213    51.0541   175.9894 </r>
       <r>   -12.6040    51.0948   181.9941 </r>
       <r>   -12.4867     0.0000   184.0000 </r>
       <r>   -12.3694    34.1373   188.0048 </r>
       <r>   -12.2521    40.8803   195.9958 </r>
       <r>   -12.1348     0.0000   200.0000 </r>
       <r>   -12.0175    29.2229   203.4283 </r>
       <r>   -11.9001     5.1689   204.7730 </r>
       <r>   -11.7828     2.8414   206.0000 </r>
       <r>   -11.6655    24.0809   208.8250 </r>
       <r>   -11.5482    27.9412   213.2779 </r>
       <r>   -11.4309    22.5175   216.6416 </r>
       <r>   -11.3136    34.1733   222.0090 </r>
       <r>   -11.1963    58.3229   230.8421 </r>
       <r>   -11.0789     0.0000   232.0000 </r>
       <r>   -10.9616    24.1788   234.8365 </r>
       <r>   -10.8443     2.8414   236.0000 </r>
       <r>   -10.7270    10.9083   237.2797 </r>
       <r>   -10.6097     3.6938   238.0000 </r>
       <r>   -10.4924     0.0012   238.0001 </r>
       <r>   -10.3751    29.5499   243.9999 </r>
       <r>   -10.2577    13.0299   247.8286 </r>
       <r>   -10.1404    26.4783   251.1063 </r>
       <r>   -10.0231    17.0483   254.0000 </r>
       <r>    -9.9058    17.0483   256.0000 </r>
       <r>    -9.7885     0.0000   256.0000 </r>
       <r>    -9.6712     1.1106   256.1303 </r>
       <r>    -9.5539    68.0840   267.9872 </r>
       <r>    -9.4366     0.0190   268.0022 </r>
       <r>    -9.3192     0.0000   272.0000 </r>
       <r>    -9.2019    42.2292   276.9541 </r>
       <r>    -9.0846    17.0483   280.0000 </r>
       <r>    -8.9673    34.0848   283.9986 </r>
       <r>    -8.8500    17.1563   286.0127 </r>
       <r>    -8.7327    12.5354   287.9706 </r>
       <r>    -8.6154     0.0000   288.0000 </r>
       <r>    -8.4980    11.6210   289.3633 </r>
       <r>    -8.3807     2.8414   290.0000 </r>
       <r>    -8.2634     6.6353   290.7784 </r>
       <r>    -8.1461    12.7632   293.9973 </r>
       <r>    -8.0288     0.2548   294.0299 </r>
       <r>    -7.9115    21.8786   298.0000 </r>
       <r>    -7.7942    38.2655   302.4891 </r>
       <r>    -7.6768     0.0000   304.0000 </r>
       <r>    -7.5595    52.6541   310.1771 </r>
       <r>    -7.4422     0.0000   316.0000 </r>
       <r>    -7.3249   101.3450   327.8892 </r>
       <r>    -7.2076     0.0000   328.0000 </r>
       <r>    -7.0903     1.2340   328.1448 </r>
       <r>    -6.9730    14.2069   334.0000 </r>
       <r>    -6.8556    51.1169   339.9967 </r>
       <r>    -6.7383     0.8506   340.0998 </r>
       <r>    -6.6210    60.8060   352.0001 </r>
       <r>    -6.5037    42.8962   358.1323 </r>
       <r>    -6.3864     0.0000   360.0000 </r>
       <r>    -6.2691    38.2696   368.4896 </r>
       <r>    -6.1518     0.0000   374.0000 </r>
       <r>    -6.0344     6.1540   374.7219 </r>
       <r>    -5.9171     0.0000   378.0000 </r>
       <r>    -5.7998     0.0000   378.0000 </r>
       <r>    -5.6825     0.0000   378.0000 </r>
       <r>    -5.5652     0.0000   378.0000 </r>
       <r>    -5.4479     0.0000   378.0000 </r>
       <r>    -5.3306     0.0000   378.0000 </r>
       <r>    -5.2132     0.0000   378.0000 </r>
       <r>    -5.0959     0.0000   378.0000 </r>
       <r>    -4.9786     0.0000   378.0000 </r>
       <r>    -4.8613     0.0000   378.0000 </r>
       <r>    -4.7440     0.0000   378.0000 </r>
       <r>    -4.6267     0.0000   378.0000 </r>
       <r>    -4.5094     0.0000   378.0000 </r>
       <r>    -4.3921     0.0000   378.0000 </r>
       <r>    -4.2747     0.0000   378.0000 </r>
       <r>    -4.1574     0.0000   378.0000 </r>
       <r>    -4.0401     0.0000   378.0000 </r>
       <r>    -3.9228     0.0000   378.0000 </r>
       <r>    -3.8055     0.0000   378.0000 </r>
       <r>    -3.6882    25.4634   380.9872 </r>
       <r>    -3.5709    11.7072   383.3734 </r>
       <r>    -3.4535     2.0159   384.2365 </r>
       <r>    -3.3362    13.5584   389.5906 </r>
       <r>    -3.2189    20.7002   392.4284 </r>
       <r>    -3.1016    10.8342   394.0043 </r>
       <r>    -2.9843     6.8193   396.0000 </r>
       <r>    -2.8670     0.0000   396.0000 </r>
       <r>    -2.7497    31.8431   399.7356 </r>
       <r>    -2.6323     2.4051   400.2821 </r>
       <r>    -2.5150     3.1255   402.0000 </r>
       <r>    -2.3977     0.0000   402.0000 </r>
       <r>    -2.2804     0.0000   402.0000 </r>
       <r>    -2.1631     0.0000   402.0000 </r>
       <r>    -2.0458     0.0003   402.0000 </r>
       <r>    -1.9285    25.0624   407.8735 </r>
       <r>    -1.8111    48.5561   413.6963 </r>
       <r>    -1.6938    15.3227   415.7976 </r>
       <r>    -1.5765    11.0793   417.9998 </r>
       <r>    -1.4592     9.9860   419.1715 </r>
       <r>    -1.3419    21.8778   421.9999 </r>
       <r>    -1.2246     0.0000   422.0000 </r>
       <r>    -1.1073     0.0000   422.0000 </r>
       <r>    -0.9899     5.2138   422.6116 </r>
       <r>    -0.8726     9.4144   423.9711 </r>
       <r>    -0.7553     9.8511   425.2223 </r>
       <r>    -0.6380     4.2652   426.0004 </r>
       <r>    -0.5207    31.1695   433.5899 </r>
       <r>    -0.4034    16.9184   436.6181 </r>
       <r>    -0.2861    34.0980   442.0002 </r>
       <r>    -0.1687     8.9645   443.7183 </r>
       <r>    -0.0514     3.6358   446.4265 </r>
       <r>     0.0659    23.8149   449.8272 </r>
       <r>     0.1832    23.8028   454.3591 </r>
       <r>     0.3005    34.0468   459.9942 </r>
       <r>     0.4178    34.0970   464.0001 </r>
       <r>     0.5351    49.8791   471.8515 </r>
       <r>     0.6524    51.1562   479.3680 </r>
       <r>     0.7698    51.6105   488.7213 </r>
       <r>     0.8871    59.5799   498.5896 </r>
       <r>     1.0044    60.6658   508.7503 </r>
       <r>     1.1217     1.9890   512.0000 </r>
       <r>     1.2390     0.0000   512.0000 </r>
       <r>     1.3563     0.0000   512.0000 </r>
       <r>     1.4736     0.0000   512.0000 </r>
       <r>     1.5910     0.0000   512.0000 </r>
       <r>     1.7083     0.0000   512.0000 </r>
       <r>     1.8256     0.0000   512.0000 </r>
       <r>     1.9429     0.0000   512.0000 </r>
       <r>     2.0602     0.0000   512.0000 </r>
       <r>     2.1775     0.0000   512.0000 </r>
       <r>     2.2948     0.0000   512.0000 </r>
       <r>     2.4122     0.0000   512.0000 </r>
       <r>     2.5295     0.0000   512.0000 </r>
       <r>     2.6468     0.0000   512.0000 </r>
      </set>
     </set>
    </array>
   </total>
  </dos>
 </calculation>
 <structure name="finalpos" >
  <crystal>
   <varray name="basis" >
    <v>      29.26569274       0.02680268       0.00000000 </v>
    <v>     -14.60941608      25.30067270       0.00000000 </v>
    <v>       0.00000000       0.00000000      20.00000000 </v>
   </varray>
   <i name="volume">  14816.66570071 </i>
   <varray name="rec_basis" >
    <v>       0.03415164       0.01972025       0.00000000 </v>
    <v>      -0.00003618       0.03950375       0.00000000 </v>
    <v>       0.00000000       0.00000000       0.05000000 </v>
   </varray>
  </crystal>
  <varray name="positions" >
   <v>       0.31199963       0.69856241       0.55634465 </v>
   <v>       0.38996771       0.69106185       0.55613678 </v>
   <v>       0.30452055       0.61299163       0.55645843 </v>
   <v>       0.22971323       0.62264724       0.55836448 </v>
   <v>       0.38034224       0.60649037       0.55883100 </v>
   <v>       0.39623009       0.77347427       0.55734895 </v>
   <v>       0.69035585       0.30105836       0.52142148 </v>
   <v>       0.61544852       0.31355481       0.52066325 </v>
   <v>       0.70274834       0.38856286       0.52131685 </v>
   <v>       0.77461928       0.37358812       0.52478904 </v>
   <v>       0.63013257       0.40036689       0.52412333 </v>
   <v>       0.60365794       0.22912453       0.52375154 </v>
   <v>       0.46015394       0.04393229       0.59071863 </v>
   <v>       0.43626621       0.86630709       0.64056022 </v>
   <v>       0.58552534       0.54129202       0.59454883 </v>
   <v>       0.43240468       0.56552517       0.64227796 </v>
   <v>       0.96040157       0.41600896       0.59067171 </v>
   <v>       0.13650622       0.57073066       0.64157435 </v>
   <v>       0.03237705       0.51004825       0.50980703 </v>
   <v>       0.28434449       0.64541253       0.55626426 </v>
   <v>       0.36449205       0.71874678       0.55580783 </v>
   <v>       0.35759681       0.63845012       0.55634353 </v>
   <v>       0.72048579       0.35403793       0.52127129 </v>
   <v>       0.63820111       0.28332481       0.52067477 </v>
   <v>       0.64984638       0.36581728       0.52074738 </v>
   <v>       0.41806655       0.85945267       0.51653274 </v>
   <v>       0.44353597       0.89018043       0.57322386 </v>
   <v>       0.47455464       0.94473235       0.57015723 </v>
   <v>       0.48088025       0.97093138       0.50912885 </v>
   <v>       0.51406573       0.02911350       0.50487562 </v>
   <v>       0.50615487       0.06412351       0.54525349 </v>
   <v>       0.53850042       0.11843572       0.54242997 </v>
   <v>       0.38773327       0.80161710       0.51571435 </v>
   <v>       0.44390938       0.58374881       0.51825818 </v>
   <v>       0.44904432       0.55820607       0.57500864 </v>
   <v>       0.47261361       0.52720502       0.57209942 </v>
   <v>       0.49272657       0.52103589       0.51119680 </v>
   <v>       0.51807321       0.48818616       0.50692282 </v>
   <v>       0.56064684       0.49597145       0.54777636 </v>
   <v>       0.58314775       0.46410515       0.54434551 </v>
   <v>       0.41664293       0.61429830       0.51709183 </v>
   <v>       0.14367167       0.55872538       0.51769286 </v>
   <v>       0.11285841       0.55375464       0.57417473 </v>
   <v>       0.05838116       0.53019312       0.57084441 </v>
   <v>       0.97426254       0.48475855       0.50540733 </v>
   <v>       0.93963465       0.44159457       0.54561100 </v>
   <v>       0.88535492       0.41925180       0.54287533 </v>
   <v>       0.20141170       0.58601183       0.51685217 </v>
   <v>       0.45602510       0.94115321       0.45184091 </v>
   <v>       0.42481695       0.88648968       0.45600342 </v>
   <v>       0.58055533       0.14031821       0.49680293 </v>
   <v>       0.58958610       0.10641000       0.45621522 </v>
   <v>       0.55694783       0.05183742       0.46049854 </v>
   <v>       0.61415690       0.19763221       0.49113809 </v>
   <v>       0.48784102       0.54587827       0.45383829 </v>
   <v>       0.46427382       0.57699490       0.45781603 </v>
   <v>       0.56386954       0.42268902       0.49772362 </v>
   <v>       0.52118441       0.41368167       0.45680612 </v>
   <v>       0.49874050       0.44584846       0.46162632 </v>
   <v>       0.58810749       0.38960046       0.49155485 </v>
   <v>       0.06224525       0.51479272       0.45271061 </v>
   <v>       0.11681305       0.53825478       0.45712320 </v>
   <v>       0.86316653       0.43929083       0.49740289 </v>
   <v>       0.89669094       0.48236910       0.45685326 </v>
   <v>       0.95123588       0.50471369       0.46112738 </v>
   <v>       0.80593001       0.41541033       0.49183154 </v>
   <v>       0.46801460       0.06387250       0.64715540 </v>
   <v>       0.39075127       0.84206847       0.66227760 </v>
   <v>       0.41710632       0.00934897       0.56850665 </v>
   <v>       0.47677241       0.87495685       0.67054809 </v>
   <v>       0.59730607       0.53258195       0.65070306 </v>
   <v>       0.45372989       0.61111739       0.66396749 </v>
   <v>       0.59358692       0.58460166       0.57361450 </v>
   <v>       0.40039644       0.52500103       0.67221645 </v>
   <v>       0.94098182       0.40397424       0.64735181 </v>
   <v>       0.16137546       0.55015484       0.66357627 </v>
   <v>       0.99494872       0.40770619       0.56783947 </v>
   <v>       0.12712474       0.60228051       0.67127017 </v>
   <v>       0.03640427       0.52766384       0.61605678 </v>
   <v>       0.04236950       0.49883850       0.40517480 </v>
   <v>       0.53093481       0.14416686       0.57433054 </v>
   <v>       0.49374134       0.96660072       0.61554278 </v>
   <v>       0.35832615       0.78368559       0.47525595 </v>
   <v>       0.61616305       0.47155146       0.57661345 </v>
   <v>       0.47524269       0.50800512       0.61753212 </v>
   <v>       0.42802383       0.64333173       0.47612140 </v>
   <v>       0.85990362       0.38579449       0.57467190 </v>
   <v>       0.21915006       0.57433710       0.47631696 </v>
   <v>       0.46029559       0.96117311       0.40430246 </v>
   <v>       0.40547108       0.86357643       0.41125025 </v>
   <v>       0.62264261       0.12304051       0.42123973 </v>
   <v>       0.56495826       0.02573517       0.42990630 </v>
   <v>       0.64844567       0.21242787       0.45729432 </v>
   <v>       0.50375847       0.54172028       0.40639612 </v>
   <v>       0.46076888       0.59636273       0.41301390 </v>
   <v>       0.50539468       0.38104725       0.42112472 </v>
   <v>       0.46487053       0.43788802       0.43068345 </v>
   <v>       0.56894156       0.35538038       0.45747987 </v>
   <v>       0.13980708       0.54162160       0.41253330 </v>
   <v>       0.87976100       0.49859623       0.42195874 </v>
   <v>       0.97703060       0.53896121       0.43061334 </v>
   <v>       0.79098941       0.43467262       0.45772622 </v>
  </varray>
 </structure>
</modeling>
