<?xml version="1.0" encoding="ISO-8859-1"?>
<modeling>
 <generator>
  <i name="program" type="string">vasp </i>
  <i name="version" type="string">5.4.4.18Apr17-6-g9f103f2a35  </i>
  <i name="subversion" type="string">(build Jun 07 2020 16:50:00) complex            parallel </i>
  <i name="platform" type="string">LinuxIFC </i>
  <i name="date" type="string">2023 02 14 </i>
  <i name="time" type="string">17:17:14 </i>
 </generator>
 <incar>
  <i type="string" name="SYSTEM">Simulation for cell shape cell volume r</i>
  <i type="int" name="ISTART">     1</i>
  <i type="string" name="PREC">high</i>
  <i type="string" name="ALGO">48</i>
  <i type="int" name="ICHARG">    11</i>
  <i type="int" name="NELM">   200</i>
  <i type="int" name="IBRION">    -1</i>
  <i name="EDIFF">      0.00001000</i>
  <i name="EDIFFG">     -0.01000000</i>
  <i type="int" name="NSW">     0</i>
  <i type="int" name="ISIF">     2</i>
  <i name="ENCUT">    500.00000000</i>
  <i name="POTIM">      0.30000000</i>
  <i type="string" name="LREAL">A</i>
  <i type="int" name="ISMEAR">     0</i>
  <i name="SIGMA">      0.01000000</i>
  <i type="int" name="NWRITE">     0</i>
  <i type="logical" name="LWAVE"> F  </i>
  <i type="logical" name="LCHARG"> F  </i>
  <v type="int" name="KPOINT_BSE">    -1     0     0     0</v>
  <i type="int" name="NELM">   200</i>
  <i type="string" name="GGA">PE</i>
 </incar>
 <structure name="primitive_cell" >
  <crystal>
   <varray name="basis" >
    <v>      22.27253693       0.00000000       0.00000000 </v>
    <v>     -11.13626847      19.28858278       0.00000000 </v>
    <v>       0.00000000       0.00000000      20.00000000 </v>
   </varray>
   <i name="volume">   8592.11344722 </i>
   <varray name="rec_basis" >
    <v>       0.04489834       0.02592207       0.00000000 </v>
    <v>      -0.00000000       0.05184414       0.00000000 </v>
    <v>       0.00000000       0.00000000       0.05000000 </v>
   </varray>
  </crystal>
  <varray name="positions" >
   <v>       0.37154750       0.18577006       0.49114203 </v>
   <v>       0.40756731       0.20378505      -0.45082144 </v>
   <v>       0.40842061       0.20420772       0.42832068 </v>
   <v>       0.29515092       0.14756908       0.49558848 </v>
   <v>       0.47669851       0.23835400      -0.44976158 </v>
   <v>       0.25905565       0.12952840       0.43758917 </v>
   <v>       0.48146464       0.24073126       0.43102828 </v>
   <v>       0.37518579       0.18759114       0.36845604 </v>
   <v>       0.34493801       0.17247134      -0.38383349 </v>
   <v>       0.25833277       0.12915003      -0.44155653 </v>
   <v>       0.32184094       0.16091760       0.37055747 </v>
   <v>      -0.48331390       0.25834517       0.49167954 </v>
   <v>       0.29158013       0.14571678      -0.38170672 </v>
   <v>      -0.49848424       0.25076483      -0.40065232 </v>
   <v>       0.40270497       0.20134864       0.32546265 </v>
   <v>      -0.48930900       0.25534449       0.38419629 </v>
   <v>       0.18992338       0.09496697       0.43659907 </v>
   <v>       0.18528662       0.09264774      -0.44418593 </v>
   <v>       0.26406143       0.13206936      -0.33870560 </v>
   <v>       0.15000375       0.07501103       0.49520816 </v>
   <v>      -0.40626688       0.29686836       0.49378748 </v>
   <v>       0.16503995       0.08252334       0.38752893 </v>
   <v>       0.15613462       0.07807583      -0.39732118 </v>
   <v>      -0.39781537       0.20437925       0.49345082 </v>
   <v>      -0.39780538       0.39781537       0.49345082 </v>
   <v>      -0.36952165       0.26095993       0.49391141 </v>
   <v>      -0.36951842       0.36952165       0.49391141 </v>
   <v>       0.07294297       0.03647697       0.49321060 </v>
   <v>       0.06448413      -0.06446895       0.49359509 </v>
   <v>       0.06446895       0.12895308       0.49359509 </v>
   <v>      -0.29686836       0.29686476       0.49378748 </v>
   <v>      -0.29686476       0.40626688       0.49378748 </v>
   <v>       0.03619211      -0.03618158       0.49309815 </v>
   <v>       0.03618158       0.07237369       0.49309815 </v>
   <v>      -0.26095993       0.36951842       0.49391141 </v>
   <v>      -0.25834517       0.25834093       0.49167954 </v>
   <v>      -0.25834093       0.48331390       0.49167954 </v>
   <v>      -0.25534449       0.25534651       0.38419629 </v>
   <v>      -0.25534651       0.48930900       0.38419629 </v>
   <v>      -0.03646600      -0.07294297       0.49321060 </v>
   <v>      -0.03647697       0.03646600       0.49321060 </v>
   <v>      -0.25076483       0.25075094      -0.40065232 </v>
   <v>      -0.25075094       0.49848424      -0.40065232 </v>
   <v>      -0.20437925       0.39780538       0.49345082 </v>
   <v>      -0.24073126       0.24073338       0.43102828 </v>
   <v>      -0.24073338      -0.48146464       0.43102828 </v>
   <v>      -0.23835400       0.23834451      -0.44976158 </v>
   <v>      -0.23834451      -0.47669851      -0.44976158 </v>
   <v>      -0.07237369      -0.03619211       0.49309815 </v>
   <v>      -0.07499272      -0.15000375       0.49520816 </v>
   <v>      -0.07501103       0.07499272       0.49520816 </v>
   <v>      -0.07805879      -0.15613462      -0.39732118 </v>
   <v>      -0.07807583       0.07805879      -0.39732118 </v>
   <v>      -0.20420772       0.20421289       0.42832068 </v>
   <v>      -0.20421289      -0.40842061       0.42832068 </v>
   <v>      -0.20378505       0.20378225      -0.45082144 </v>
   <v>      -0.20378225      -0.40756731      -0.45082144 </v>
   <v>      -0.08251662      -0.16503995       0.38752893 </v>
   <v>      -0.08252334       0.08251662       0.38752893 </v>
   <v>      -0.09263888      -0.18528662      -0.44418593 </v>
   <v>      -0.09264774       0.09263888      -0.44418593 </v>
   <v>      -0.09495641      -0.18992338       0.43659907 </v>
   <v>      -0.09496697       0.09495641       0.43659907 </v>
   <v>      -0.12895308      -0.06448413       0.49359509 </v>
   <v>      -0.18577006       0.18577743       0.49114203 </v>
   <v>      -0.18577743      -0.37154750       0.49114203 </v>
   <v>      -0.20135633      -0.40270497       0.32546265 </v>
   <v>      -0.20134864       0.20135633       0.32546265 </v>
   <v>      -0.18759114       0.18759466       0.36845604 </v>
   <v>      -0.18759466      -0.37518579       0.36845604 </v>
   <v>      -0.17247134       0.17246667      -0.38383349 </v>
   <v>      -0.17246667      -0.34493801      -0.38383349 </v>
   <v>      -0.12952725      -0.25905565       0.43758917 </v>
   <v>      -0.12952840       0.12952725       0.43758917 </v>
   <v>      -0.12915003       0.12918274      -0.44155653 </v>
   <v>      -0.12918274      -0.25833277      -0.44155653 </v>
   <v>      -0.16091760       0.16092334       0.37055747 </v>
   <v>      -0.16092334      -0.32184094       0.37055747 </v>
   <v>      -0.14758184      -0.29515092       0.49558848 </v>
   <v>      -0.14756908       0.14758184       0.49558848 </v>
   <v>      -0.13199207      -0.26406143      -0.33870560 </v>
   <v>      -0.13206936       0.13199207      -0.33870560 </v>
   <v>      -0.14571678       0.14586335      -0.38170672 </v>
   <v>      -0.14586335      -0.29158013      -0.38170672 </v>
  </varray>
 </structure>
 <varray name="primitive_index" >
  <v type="int" >        1 </v>
  <v type="int" >       44 </v>
  <v type="int" >        2 </v>
  <v type="int" >       39 </v>
  <v type="int" >        4 </v>
  <v type="int" >       49 </v>
  <v type="int" >        3 </v>
  <v type="int" >       43 </v>
  <v type="int" >       83 </v>
  <v type="int" >       40 </v>
  <v type="int" >       58 </v>
  <v type="int" >        8 </v>
  <v type="int" >       54 </v>
  <v type="int" >       57 </v>
  <v type="int" >       56 </v>
  <v type="int" >       55 </v>
  <v type="int" >       28 </v>
  <v type="int" >       41 </v>
  <v type="int" >       84 </v>
  <v type="int" >       42 </v>
  <v type="int" >        5 </v>
  <v type="int" >       73 </v>
  <v type="int" >       82 </v>
  <v type="int" >       60 </v>
  <v type="int" >       59 </v>
  <v type="int" >        6 </v>
  <v type="int" >        7 </v>
  <v type="int" >       12 </v>
  <v type="int" >       63 </v>
  <v type="int" >       64 </v>
  <v type="int" >        9 </v>
  <v type="int" >       10 </v>
  <v type="int" >       17 </v>
  <v type="int" >       13 </v>
  <v type="int" >       11 </v>
  <v type="int" >       23 </v>
  <v type="int" >       18 </v>
  <v type="int" >       69 </v>
  <v type="int" >       65 </v>
  <v type="int" >       16 </v>
  <v type="int" >       14 </v>
  <v type="int" >       79 </v>
  <v type="int" >       75 </v>
  <v type="int" >       61 </v>
  <v type="int" >       26 </v>
  <v type="int" >       21 </v>
  <v type="int" >       34 </v>
  <v type="int" >       29 </v>
  <v type="int" >       15 </v>
  <v type="int" >       33 </v>
  <v type="int" >       38 </v>
  <v type="int" >       74 </v>
  <v type="int" >       78 </v>
  <v type="int" >       25 </v>
  <v type="int" >       20 </v>
  <v type="int" >       52 </v>
  <v type="int" >       50 </v>
  <v type="int" >       66 </v>
  <v type="int" >       70 </v>
  <v type="int" >       32 </v>
  <v type="int" >       37 </v>
  <v type="int" >       22 </v>
  <v type="int" >       27 </v>
  <v type="int" >       62 </v>
  <v type="int" >       24 </v>
  <v type="int" >       19 </v>
  <v type="int" >       67 </v>
  <v type="int" >       71 </v>
  <v type="int" >       48 </v>
  <v type="int" >       46 </v>
  <v type="int" >       80 </v>
  <v type="int" >       76 </v>
  <v type="int" >       45 </v>
  <v type="int" >       47 </v>
  <v type="int" >       36 </v>
  <v type="int" >       31 </v>
  <v type="int" >       72 </v>
  <v type="int" >       68 </v>
  <v type="int" >       30 </v>
  <v type="int" >       35 </v>
  <v type="int" >       77 </v>
  <v type="int" >       81 </v>
  <v type="int" >       53 </v>
  <v type="int" >       51 </v>
 </varray>
 <kpoints>
  <generation param="listgenerated">
   <i name="divisions" type="int">      20 </i>
   <v>       0.00000000       0.00000000       0.00000000 </v>
   <v>       0.50000000       0.00000000       0.00000000 </v>
   <v>       0.33333333       0.33333333       0.00000000 </v>
   <v>       0.00000000       0.00000000       0.00000000 </v>
  </generation>
  <varray name="kpointlist" >
   <v>       0.00000000       0.00000000       0.00000000 </v>
   <v>       0.02631579       0.00000000       0.00000000 </v>
   <v>       0.05263158       0.00000000       0.00000000 </v>
   <v>       0.07894737       0.00000000       0.00000000 </v>
   <v>       0.10526316       0.00000000       0.00000000 </v>
   <v>       0.13157895       0.00000000       0.00000000 </v>
   <v>       0.15789474       0.00000000       0.00000000 </v>
   <v>       0.18421053       0.00000000       0.00000000 </v>
   <v>       0.21052632       0.00000000       0.00000000 </v>
   <v>       0.23684211       0.00000000       0.00000000 </v>
   <v>       0.26315789       0.00000000       0.00000000 </v>
   <v>       0.28947368       0.00000000       0.00000000 </v>
   <v>       0.31578947       0.00000000       0.00000000 </v>
   <v>       0.34210526       0.00000000       0.00000000 </v>
   <v>       0.36842105       0.00000000       0.00000000 </v>
   <v>       0.39473684       0.00000000       0.00000000 </v>
   <v>       0.42105263       0.00000000       0.00000000 </v>
   <v>       0.44736842       0.00000000       0.00000000 </v>
   <v>       0.47368421       0.00000000       0.00000000 </v>
   <v>       0.50000000       0.00000000       0.00000000 </v>
   <v>       0.50000000       0.00000000       0.00000000 </v>
   <v>       0.49122807       0.01754386       0.00000000 </v>
   <v>       0.48245614       0.03508772       0.00000000 </v>
   <v>       0.47368421       0.05263158       0.00000000 </v>
   <v>       0.46491228       0.07017544       0.00000000 </v>
   <v>       0.45614035       0.08771930       0.00000000 </v>
   <v>       0.44736842       0.10526316       0.00000000 </v>
   <v>       0.43859649       0.12280702       0.00000000 </v>
   <v>       0.42982456       0.14035088       0.00000000 </v>
   <v>       0.42105263       0.15789474       0.00000000 </v>
   <v>       0.41228070       0.17543860       0.00000000 </v>
   <v>       0.40350877       0.19298246       0.00000000 </v>
   <v>       0.39473684       0.21052632       0.00000000 </v>
   <v>       0.38596491       0.22807018       0.00000000 </v>
   <v>       0.37719298       0.24561404       0.00000000 </v>
   <v>       0.36842105       0.26315789       0.00000000 </v>
   <v>       0.35964912       0.28070175       0.00000000 </v>
   <v>       0.35087719       0.29824561       0.00000000 </v>
   <v>       0.34210526       0.31578947       0.00000000 </v>
   <v>       0.33333333       0.33333333       0.00000000 </v>
   <v>       0.33333333       0.33333333       0.00000000 </v>
   <v>       0.31578947       0.31578947       0.00000000 </v>
   <v>       0.29824561       0.29824561       0.00000000 </v>
   <v>       0.28070175       0.28070175       0.00000000 </v>
   <v>       0.26315789       0.26315789       0.00000000 </v>
   <v>       0.24561404       0.24561404       0.00000000 </v>
   <v>       0.22807018       0.22807018       0.00000000 </v>
   <v>       0.21052632       0.21052632       0.00000000 </v>
   <v>       0.19298246       0.19298246       0.00000000 </v>
   <v>       0.17543860       0.17543860       0.00000000 </v>
   <v>       0.15789474       0.15789474       0.00000000 </v>
   <v>       0.14035088       0.14035088       0.00000000 </v>
   <v>       0.12280702       0.12280702       0.00000000 </v>
   <v>       0.10526316       0.10526316       0.00000000 </v>
   <v>       0.08771930       0.08771930       0.00000000 </v>
   <v>       0.07017544       0.07017544       0.00000000 </v>
   <v>       0.05263158       0.05263158       0.00000000 </v>
   <v>       0.03508772       0.03508772       0.00000000 </v>
   <v>       0.01754386       0.01754386       0.00000000 </v>
   <v>       0.00000000       0.00000000       0.00000000 </v>
  </varray>
  <varray name="weights" >
   <v>       0.01666667 </v>
   <v>       0.01666667 </v>
   <v>       0.01666667 </v>
   <v>       0.01666667 </v>
   <v>       0.01666667 </v>
   <v>       0.01666667 </v>
   <v>       0.01666667 </v>
   <v>       0.01666667 </v>
   <v>       0.01666667 </v>
   <v>       0.01666667 </v>
   <v>       0.01666667 </v>
   <v>       0.01666667 </v>
   <v>       0.01666667 </v>
   <v>       0.01666667 </v>
   <v>       0.01666667 </v>
   <v>       0.01666667 </v>
   <v>       0.01666667 </v>
   <v>       0.01666667 </v>
   <v>       0.01666667 </v>
   <v>       0.01666667 </v>
   <v>       0.01666667 </v>
   <v>       0.01666667 </v>
   <v>       0.01666667 </v>
   <v>       0.01666667 </v>
   <v>       0.01666667 </v>
   <v>       0.01666667 </v>
   <v>       0.01666667 </v>
   <v>       0.01666667 </v>
   <v>       0.01666667 </v>
   <v>       0.01666667 </v>
   <v>       0.01666667 </v>
   <v>       0.01666667 </v>
   <v>       0.01666667 </v>
   <v>       0.01666667 </v>
   <v>       0.01666667 </v>
   <v>       0.01666667 </v>
   <v>       0.01666667 </v>
   <v>       0.01666667 </v>
   <v>       0.01666667 </v>
   <v>       0.01666667 </v>
   <v>       0.01666667 </v>
   <v>       0.01666667 </v>
   <v>       0.01666667 </v>
   <v>       0.01666667 </v>
   <v>       0.01666667 </v>
   <v>       0.01666667 </v>
   <v>       0.01666667 </v>
   <v>       0.01666667 </v>
   <v>       0.01666667 </v>
   <v>       0.01666667 </v>
   <v>       0.01666667 </v>
   <v>       0.01666667 </v>
   <v>       0.01666667 </v>
   <v>       0.01666667 </v>
   <v>       0.01666667 </v>
   <v>       0.01666667 </v>
   <v>       0.01666667 </v>
   <v>       0.01666667 </v>
   <v>       0.01666667 </v>
   <v>       0.01666667 </v>
  </varray>
 </kpoints>
 <parameters>
  <separator name="general" >
   <i type="string" name="SYSTEM">Simulation for cell shape cell volume r</i>
   <i type="logical" name="LCOMPAT"> F  </i>
  </separator>
  <separator name="electronic" >
   <i type="string" name="PREC">high</i>
   <i name="ENMAX">    500.00000000</i>
   <i name="ENAUG">    644.87300000</i>
   <i name="EDIFF">      0.00001000</i>
   <i type="int" name="IALGO">    38</i>
   <i type="int" name="IWAVPR">    10</i>
   <i type="int" name="NBANDS">   176</i>
   <i name="NELECT">    258.00000000</i>
   <i type="int" name="TURBO">     0</i>
   <i type="int" name="IRESTART">     0</i>
   <i type="int" name="NREBOOT">     0</i>
   <i type="int" name="NMIN">     0</i>
   <i name="EREF">      0.00000000</i>
   <separator name="electronic smearing" >
    <i type="int" name="ISMEAR">     0</i>
    <i name="SIGMA">      0.01000000</i>
    <i name="KSPACING">      0.50000000</i>
    <i type="logical" name="KGAMMA"> T  </i>
   </separator>
   <separator name="electronic projectors" >
    <i type="logical" name="LREAL"> T  </i>
    <v name="ROPT">     -0.00040000     -0.00040000     -0.00040000</v>
    <i type="int" name="LMAXPAW">  -100</i>
    <i type="int" name="LMAXMIX">     2</i>
    <i type="logical" name="NLSPLINE"> F  </i>
   </separator>
   <separator name="electronic startup" >
    <i type="int" name="ISTART">     1</i>
    <i type="int" name="ICHARG">    11</i>
    <i type="int" name="INIWAV">     1</i>
   </separator>
   <separator name="electronic spin" >
    <i type="int" name="ISPIN">     1</i>
    <i type="logical" name="LNONCOLLINEAR"> F  </i>
    <v name="MAGMOM">      1.00000000      1.00000000      1.00000000      1.00000000      1.00000000      1.00000000      1.00000000      1.00000000      1.00000000      1.00000000      1.00000000      1.00000000      1.00000000      1.00000000      1.00000000      1.00000000      1.00000000      1.00000000      1.00000000      1.00000000
      1.00000000      1.00000000      1.00000000      1.00000000      1.00000000      1.00000000      1.00000000      1.00000000      1.00000000      1.00000000      1.00000000      1.00000000      1.00000000      1.00000000      1.00000000      1.00000000      1.00000000      1.00000000      1.00000000      1.00000000
      1.00000000      1.00000000      1.00000000      1.00000000      1.00000000      1.00000000      1.00000000      1.00000000      1.00000000      1.00000000      1.00000000      1.00000000      1.00000000      1.00000000      1.00000000      1.00000000      1.00000000      1.00000000      1.00000000      1.00000000
      1.00000000      1.00000000      1.00000000      1.00000000      1.00000000      1.00000000      1.00000000      1.00000000      1.00000000      1.00000000      1.00000000      1.00000000      1.00000000      1.00000000      1.00000000      1.00000000      1.00000000      1.00000000      1.00000000      1.00000000
      1.00000000      1.00000000      1.00000000      1.00000000</v>
    <i name="NUPDOWN">     -1.00000000</i>
    <i type="logical" name="LSORBIT"> F  </i>
    <v name="SAXIS">      0.00000000      0.00000000      1.00000000</v>
    <i type="logical" name="LSPIRAL"> F  </i>
    <v name="QSPIRAL">      0.00000000      0.00000000      0.00000000</v>
    <i type="logical" name="LZEROZ"> F  </i>
   </separator>
   <separator name="electronic exchange-correlation" >
    <i type="logical" name="LASPH"> F  </i>
    <i type="logical" name="LMETAGGA"> F  </i>
   </separator>
   <separator name="electronic convergence" >
    <i type="int" name="NELM">   200</i>
    <i type="int" name="NELMDL">     0</i>
    <i type="int" name="NELMIN">     2</i>
    <i name="ENINI">    500.00000000</i>
    <separator name="electronic convergence detail" >
     <i type="logical" name="LDIAG"> T  </i>
     <i type="logical" name="LSUBROT"> F  </i>
     <i name="WEIMIN">      0.00000000</i>
     <i name="EBREAK">      0.00000001</i>
     <i name="DEPER">      0.30000000</i>
     <i type="int" name="NRMM">     4</i>
     <i name="TIME">      0.40000000</i>
    </separator>
   </separator>
   <separator name="electronic mixer" >
    <i name="AMIX">      0.40000000</i>
    <i name="BMIX">      1.00000000</i>
    <i name="AMIN">      0.10000000</i>
    <i name="AMIX_MAG">      1.60000000</i>
    <i name="BMIX_MAG">      1.00000000</i>
    <separator name="electronic mixer details" >
     <i type="int" name="IMIX">     4</i>
     <i type="logical" name="MIXFIRST"> F  </i>
     <i type="int" name="MAXMIX">   -45</i>
     <i name="WC">    100.00000000</i>
     <i type="int" name="INIMIX">     1</i>
     <i type="int" name="MIXPRE">     1</i>
     <i type="int" name="MREMOVE">     5</i>
    </separator>
   </separator>
   <separator name="electronic dipolcorrection" >
    <i type="logical" name="LDIPOL"> F  </i>
    <i type="logical" name="LMONO"> F  </i>
    <i type="int" name="IDIPOL">     0</i>
    <i name="EPSILON">      1.00000000</i>
    <v name="DIPOL">   -100.00000000   -100.00000000   -100.00000000</v>
    <i name="EFIELD">      0.00000000</i>
   </separator>
  </separator>
  <separator name="grids" >
   <i type="int" name="NGX">   162</i>
   <i type="int" name="NGY">   162</i>
   <i type="int" name="NGZ">   150</i>
   <i type="int" name="NGXF">   250</i>
   <i type="int" name="NGYF">   250</i>
   <i type="int" name="NGZF">   224</i>
   <i type="logical" name="ADDGRID"> F  </i>
  </separator>
  <separator name="ionic" >
   <i type="int" name="NSW">     0</i>
   <i type="int" name="IBRION">    -1</i>
   <i type="int" name="MDALGO">     0</i>
   <i type="int" name="ISIF">     2</i>
   <i name="PSTRESS">      0.00000000</i>
   <i name="EDIFFG">     -0.01000000</i>
   <i type="int" name="NFREE">     0</i>
   <i name="POTIM">      0.30000000</i>
   <i name="SMASS">     -3.00000000</i>
   <i name="SCALEE">      1.00000000</i>
  </separator>
  <separator name="ionic md" >
   <i name="TEBEG">      0.00010000</i>
   <i name="TEEND">      0.00010000</i>
   <i type="int" name="NBLOCK">     1</i>
   <i type="int" name="KBLOCK">     1</i>
   <i type="int" name="NPACO">   256</i>
   <i name="APACO">     16.00000000</i>
  </separator>
  <separator name="symmetry" >
   <i type="int" name="ISYM">     2</i>
   <i name="SYMPREC">      0.00001000</i>
  </separator>
  <separator name="dos" >
   <i type="int" name="LORBIT">     0</i>
   <v name="RWIGS">     -1.00000000     -1.00000000     -1.00000000</v>
   <i type="int" name="NEDOS">   301</i>
   <i name="EMIN">     10.00000000</i>
   <i name="EMAX">    -10.00000000</i>
   <i name="EFERMI">      0.00000000</i>
  </separator>
  <separator name="writing" >
   <i type="int" name="NWRITE">     0</i>
   <i type="logical" name="LWAVE"> F  </i>
   <i type="logical" name="LDOWNSAMPLE"> F  </i>
   <i type="logical" name="LCHARG"> F  </i>
   <i type="logical" name="LPARD"> F  </i>
   <i type="logical" name="LVTOT"> F  </i>
   <i type="logical" name="LVHAR"> F  </i>
   <i type="logical" name="LELF"> F  </i>
   <i type="logical" name="LOPTICS"> F  </i>
   <v name="STM">      0.00000000      0.00000000      0.00000000      0.00000000      0.00000000      0.00000000      0.00000000</v>
  </separator>
  <separator name="performance" >
   <i type="int" name="NPAR">    16</i>
   <i type="int" name="NSIM">     4</i>
   <i type="int" name="NBLK">    -1</i>
   <i type="logical" name="LPLANE"> T  </i>
   <i type="logical" name="LSCALAPACK"> T  </i>
   <i type="logical" name="LSCAAWARE"> F  </i>
   <i type="logical" name="LSCALU"> F  </i>
   <i type="logical" name="LASYNC"> F  </i>
   <i type="logical" name="LORBITALREAL"> F  </i>
  </separator>
  <separator name="miscellaneous" >
   <i type="int" name="IDIOT">     3</i>
   <i type="int" name="ISPECIAL">     0</i>
   <i type="logical" name="LMUSIC"> F  </i>
   <v name="POMASS">     12.01100000     14.00100000      1.00000000</v>
   <v name="DARWINR">      0.00000000      0.00000000      0.00000000</v>
   <v name="DARWINV">      1.00000000      1.00000000      1.00000000</v>
   <i type="logical" name="LCORR"> T  </i>
  </separator>
  <i type="logical" name="GGA_COMPAT"> T  </i>
  <i type="logical" name="LBERRY"> F  </i>
  <i type="int" name="ICORELEVEL">     0</i>
  <i type="logical" name="LDAU"> F  </i>
  <i type="int" name="I_CONSTRAINED_M">     0</i>
  <separator name="electronic exchange-correlation" >
   <i type="string" name="GGA">PE</i>
   <i type="int" name="VOSKOWN">     0</i>
   <i type="logical" name="LHFCALC"> F  </i>
   <i type="string" name="PRECFOCK"></i>
   <i type="logical" name="LSYMGRAD"> F  </i>
   <i type="logical" name="LHFONE"> F  </i>
   <i type="logical" name="LRHFCALC"> F  </i>
   <i type="logical" name="LTHOMAS"> F  </i>
   <i type="logical" name="LMODELHF"> F  </i>
   <i name="ENCUT4O">     -1.00000000</i>
   <i type="int" name="EXXOEP">     0</i>
   <i type="int" name="FOURORBIT">     0</i>
   <i name="AEXX">      0.00000000</i>
   <i name="HFALPHA">      0.00000000</i>
   <i name="MCALPHA">      0.00000000</i>
   <i name="ALDAX">      1.00000000</i>
   <i name="AGGAX">      1.00000000</i>
   <i name="ALDAC">      1.00000000</i>
   <i name="AGGAC">      1.00000000</i>
   <i type="int" name="NKREDX">     1</i>
   <i type="int" name="NKREDY">     1</i>
   <i type="int" name="NKREDZ">     1</i>
   <i type="logical" name="SHIFTRED"> F  </i>
   <i type="logical" name="ODDONLY"> F  </i>
   <i type="logical" name="EVENONLY"> F  </i>
   <i type="int" name="LMAXFOCK">     0</i>
   <i type="int" name="NMAXFOCKAE">     0</i>
   <i type="logical" name="LFOCKAEDFT"> F  </i>
   <i name="HFSCREEN">      0.00000000</i>
   <i name="HFSCREENC">      0.00000000</i>
   <i type="int" name="NBANDSGWLOW">     0</i>
  </separator>
  <separator name="vdW DFT" >
   <i type="logical" name="LUSE_VDW"> F  </i>
   <i name="Zab_VDW">     -0.84910000</i>
   <i name="PARAM1">      0.12340000</i>
   <i name="PARAM2">      1.00000000</i>
   <i name="PARAM3">      0.00000000</i>
  </separator>
  <separator name="model GW" >
   <i type="int" name="MODEL_GW">     0</i>
   <i name="MODEL_EPS0">     61.37223891</i>
   <i name="MODEL_ALPHA">      1.00000000</i>
  </separator>
  <separator name="linear response parameters" >
   <i type="logical" name="LEPSILON"> F  </i>
   <i type="logical" name="LRPA"> F  </i>
   <i type="logical" name="LNABLA"> F  </i>
   <i type="logical" name="LVEL"> F  </i>
   <i type="int" name="KINTER">     0</i>
   <i name="CSHIFT">      0.10000000</i>
   <i name="OMEGAMAX">     -1.00000000</i>
   <i name="DEG_THRESHOLD">      0.00200000</i>
   <i name="RTIME">     -0.10000000</i>
   <i name="WPLASMAI">      0.00000000</i>
   <v name="DFIELD">      0.00000000      0.00000000      0.00000000</v>
   <v name="WPLASMA">      0.00000000      0.00000000      0.00000000      0.00000000      0.00000000      0.00000000      0.00000000      0.00000000      0.00000000</v>
  </separator>
  <separator name="orbital magnetization" >
   <i type="logical" name="NUCIND"> F  </i>
   <v name="MAGPOS">      0.00000000      0.00000000      0.00000000</v>
   <i type="logical" name="LNICSALL"> T  </i>
   <i type="logical" name="ORBITALMAG"> F  </i>
   <i type="logical" name="LMAGBLOCH"> F  </i>
   <i type="logical" name="LCHIMAG"> F  </i>
   <i type="logical" name="LGAUGE"> T  </i>
   <i type="int" name="MAGATOM">     0</i>
   <v name="MAGDIPOL">      0.00000000      0.00000000      0.00000000</v>
   <v name="AVECCONST">      0.00000000      0.00000000      0.00000000</v>
  </separator>
  <separator name="response functions" >
   <i type="logical" name="LADDER"> F  </i>
   <i type="logical" name="LRPAFORCE"> F  </i>
   <i type="logical" name="LFXC"> F  </i>
   <i type="logical" name="LHARTREE"> T  </i>
   <i type="int" name="IBSE">     0</i>
   <v type="int" name="KPOINT">    -1     0     0     0</v>
   <i type="logical" name="LTCTE"> F  </i>
   <i type="logical" name="LTETE"> F  </i>
   <i type="logical" name="LTRIPLET"> F  </i>
   <i type="logical" name="LFXCEPS"> F  </i>
   <i type="logical" name="LFXHEG"> F  </i>
   <i type="int" name="NATURALO">     2</i>
   <i type="logical" name="L2ORDER"> F  </i>
   <i type="logical" name="LMP2LT"> F  </i>
   <i type="logical" name="LUSEW"> F  </i>
   <i name="ENCUTGW">     -2.00000000</i>
   <i name="ENCUTGWSOFT">     -2.00000000</i>
   <i name="ENCUTLF">     -1.00000000</i>
   <i type="int" name="LMAXMP2">    -1</i>
   <i name="SCISSOR">      0.00000000</i>
   <i type="int" name="NOMEGA">     0</i>
   <i type="int" name="NOMEGAR">     0</i>
   <i type="int" name="NBANDSGW">    -1</i>
   <i type="int" name="NBANDSO">    -1</i>
   <i type="int" name="NBANDSV">    -1</i>
   <i type="int" name="NELM">   200</i>
   <i type="int" name="NELMHF">     1</i>
   <i type="int" name="DIM">     3</i>
   <i type="int" name="ANTIRES">     0</i>
   <i name="OMEGAMAX">    -30.00000000</i>
   <i name="OMEGAMIN">    -30.00000000</i>
   <i name="OMEGATL">   -200.00000000</i>
   <i type="int" name="OMEGAGRID">   140</i>
   <i name="CSHIFT">     -0.10000000</i>
   <i type="logical" name="SELFENERGY"> F  </i>
   <i type="logical" name="LSPECTRAL"> F  </i>
   <i type="logical" name="LSPECTRALGW"> F  </i>
   <i type="logical" name="LSINGLES"> F  </i>
   <i type="logical" name="LFERMIGW"> F  </i>
   <i type="logical" name="ODDONLYGW"> F  </i>
   <i type="logical" name="EVENONLYGW"> F  </i>
   <i type="int" name="NKREDLFX">     1</i>
   <i type="int" name="NKREDLFY">     1</i>
   <i type="int" name="NKREDLFZ">     1</i>
   <i type="int" name="MAXMEM">  2800</i>
   <i type="int" name="TELESCOPE">     0</i>
   <i type="int" name="TAUPAR">     1</i>
   <i type="int" name="OMEGAPAR">    -1</i>
   <i name="LAMBDA">      1.00000000</i>
  </separator>
  <separator name="External order field" >
   <i name="OFIELD_KAPPA">      0.00000000</i>
   <v name="OFIELD_K">      0.00000000      0.00000000      0.00000000</v>
   <i name="OFIELD_Q6_NEAR">      0.00000000</i>
   <i name="OFIELD_Q6_FAR">      0.00000000</i>
   <i name="OFIELD_A">      0.00000000</i>
  </separator>
  <separator name="solvation model" >
   <i type="logical" name="LSOL"> F  </i>
  </separator>
 </parameters>
 <atominfo>
  <atoms>      84 </atoms>
  <types>       3 </types>
  <array name="atoms" >
   <dimension dim="1">ion</dimension>
   <field type="string">element</field>
   <field type="int">atomtype</field>
   <set>
    <rc><c>C </c><c>   1</c></rc>
    <rc><c>C </c><c>   1</c></rc>
    <rc><c>C </c><c>   1</c></rc>
    <rc><c>C </c><c>   1</c></rc>
    <rc><c>C </c><c>   1</c></rc>
    <rc><c>C </c><c>   1</c></rc>
    <rc><c>C </c><c>   1</c></rc>
    <rc><c>C </c><c>   1</c></rc>
    <rc><c>C </c><c>   1</c></rc>
    <rc><c>C </c><c>   1</c></rc>
    <rc><c>C </c><c>   1</c></rc>
    <rc><c>C </c><c>   1</c></rc>
    <rc><c>C </c><c>   1</c></rc>
    <rc><c>C </c><c>   1</c></rc>
    <rc><c>C </c><c>   1</c></rc>
    <rc><c>C </c><c>   1</c></rc>
    <rc><c>C </c><c>   1</c></rc>
    <rc><c>C </c><c>   1</c></rc>
    <rc><c>C </c><c>   1</c></rc>
    <rc><c>C </c><c>   1</c></rc>
    <rc><c>C </c><c>   1</c></rc>
    <rc><c>C </c><c>   1</c></rc>
    <rc><c>C </c><c>   1</c></rc>
    <rc><c>C </c><c>   1</c></rc>
    <rc><c>C </c><c>   1</c></rc>
    <rc><c>C </c><c>   1</c></rc>
    <rc><c>C </c><c>   1</c></rc>
    <rc><c>C </c><c>   1</c></rc>
    <rc><c>C </c><c>   1</c></rc>
    <rc><c>C </c><c>   1</c></rc>
    <rc><c>C </c><c>   1</c></rc>
    <rc><c>C </c><c>   1</c></rc>
    <rc><c>C </c><c>   1</c></rc>
    <rc><c>C </c><c>   1</c></rc>
    <rc><c>C </c><c>   1</c></rc>
    <rc><c>C </c><c>   1</c></rc>
    <rc><c>C </c><c>   1</c></rc>
    <rc><c>C </c><c>   1</c></rc>
    <rc><c>C </c><c>   1</c></rc>
    <rc><c>C </c><c>   1</c></rc>
    <rc><c>C </c><c>   1</c></rc>
    <rc><c>C </c><c>   1</c></rc>
    <rc><c>N </c><c>   2</c></rc>
    <rc><c>N </c><c>   2</c></rc>
    <rc><c>N </c><c>   2</c></rc>
    <rc><c>N </c><c>   2</c></rc>
    <rc><c>N </c><c>   2</c></rc>
    <rc><c>N </c><c>   2</c></rc>
    <rc><c>N </c><c>   2</c></rc>
    <rc><c>N </c><c>   2</c></rc>
    <rc><c>N </c><c>   2</c></rc>
    <rc><c>N </c><c>   2</c></rc>
    <rc><c>N </c><c>   2</c></rc>
    <rc><c>N </c><c>   2</c></rc>
    <rc><c>H </c><c>   3</c></rc>
    <rc><c>H </c><c>   3</c></rc>
    <rc><c>H </c><c>   3</c></rc>
    <rc><c>H </c><c>   3</c></rc>
    <rc><c>H </c><c>   3</c></rc>
    <rc><c>H </c><c>   3</c></rc>
    <rc><c>H </c><c>   3</c></rc>
    <rc><c>H </c><c>   3</c></rc>
    <rc><c>H </c><c>   3</c></rc>
    <rc><c>H </c><c>   3</c></rc>
    <rc><c>H </c><c>   3</c></rc>
    <rc><c>H </c><c>   3</c></rc>
    <rc><c>H </c><c>   3</c></rc>
    <rc><c>H </c><c>   3</c></rc>
    <rc><c>H </c><c>   3</c></rc>
    <rc><c>H </c><c>   3</c></rc>
    <rc><c>H </c><c>   3</c></rc>
    <rc><c>H </c><c>   3</c></rc>
    <rc><c>H </c><c>   3</c></rc>
    <rc><c>H </c><c>   3</c></rc>
    <rc><c>H </c><c>   3</c></rc>
    <rc><c>H </c><c>   3</c></rc>
    <rc><c>H </c><c>   3</c></rc>
    <rc><c>H </c><c>   3</c></rc>
    <rc><c>H </c><c>   3</c></rc>
    <rc><c>H </c><c>   3</c></rc>
    <rc><c>H </c><c>   3</c></rc>
    <rc><c>H </c><c>   3</c></rc>
    <rc><c>H </c><c>   3</c></rc>
    <rc><c>H </c><c>   3</c></rc>
   </set>
  </array>
  <array name="atomtypes" >
   <dimension dim="1">type</dimension>
   <field type="int">atomspertype</field>
   <field type="string">element</field>
   <field>mass</field>
   <field>valence</field>
   <field type="string">pseudopotential</field>
   <set>
    <rc><c>  42</c><c>C </c><c>     12.01100000</c><c>      4.00000000</c><c>  PAW_PBE C 08Apr2002                   </c></rc>
    <rc><c>  12</c><c>N </c><c>     14.00100000</c><c>      5.00000000</c><c>  PAW_PBE N 08Apr2002                   </c></rc>
    <rc><c>  30</c><c>H </c><c>      1.00000000</c><c>      1.00000000</c><c>  PAW_PBE H 15Jun2001                   </c></rc>
   </set>
  </array>
 </atominfo>
 <structure name="initialpos" >
  <crystal>
   <varray name="basis" >
    <v>      22.27253693       0.00000000       0.00000000 </v>
    <v>     -11.13626847      19.28858278       0.00000000 </v>
    <v>       0.00000000       0.00000000      20.00000000 </v>
   </varray>
   <i name="volume">   8592.11344722 </i>
   <varray name="rec_basis" >
    <v>       0.04489834       0.02592207       0.00000000 </v>
    <v>      -0.00000000       0.05184414       0.00000000 </v>
    <v>       0.00000000       0.00000000       0.05000000 </v>
   </varray>
  </crystal>
  <varray name="positions" >
   <v>       0.37154750       0.18577006       0.49114203 </v>
   <v>       0.40842061       0.20420772       0.42832068 </v>
   <v>       0.48146464       0.24073126       0.43102828 </v>
   <v>       0.47669851       0.23835400       0.55023842 </v>
   <v>       0.59373312       0.29686836       0.49378748 </v>
   <v>       0.63047835       0.26095993       0.49391141 </v>
   <v>       0.63048158       0.36952165       0.49391141 </v>
   <v>       0.51668610       0.25834517       0.49167954 </v>
   <v>       0.70313164       0.29686476       0.49378748 </v>
   <v>       0.70313524       0.40626688       0.49378748 </v>
   <v>       0.73904007       0.36951842       0.49391141 </v>
   <v>       0.07294297       0.03647697       0.49321060 </v>
   <v>       0.03618158       0.07237369       0.49309815 </v>
   <v>       0.96352303       0.03646600       0.49321060 </v>
   <v>       0.92762631       0.96380789       0.49309815 </v>
   <v>       0.96353400       0.92705703       0.49321060 </v>
   <v>       0.03619211       0.96381842       0.49309815 </v>
   <v>       0.74165907       0.48331390       0.49167954 </v>
   <v>       0.81422257       0.62845250       0.49114203 </v>
   <v>       0.79578711       0.59157939       0.42832068 </v>
   <v>       0.75926662       0.51853536       0.43102828 </v>
   <v>       0.90504359       0.81007662       0.43659907 </v>
   <v>       0.74165483       0.25834093       0.49167954 </v>
   <v>       0.81422994       0.18577743       0.49114203 </v>
   <v>       0.79579228       0.20421289       0.42832068 </v>
   <v>       0.75926874       0.24073338       0.43102828 </v>
   <v>       0.90503303       0.09495641       0.43659907 </v>
   <v>       0.18992338       0.09496697       0.43659907 </v>
   <v>       0.76165549       0.52330149       0.55023842 </v>
   <v>       0.85241816       0.70484908       0.49558848 </v>
   <v>       0.87081726       0.74166723       0.55844347 </v>
   <v>       0.90736112       0.81471338       0.55581407 </v>
   <v>       0.92500728       0.84999625       0.49520816 </v>
   <v>       0.76164600       0.23834451       0.55023842 </v>
   <v>       0.85243092       0.14758184       0.49558848 </v>
   <v>       0.87084997       0.12918274       0.55844347 </v>
   <v>       0.90735226       0.09263888       0.55581407 </v>
   <v>       0.92498897       0.07499272       0.49520816 </v>
   <v>       0.29515092       0.14756908       0.49558848 </v>
   <v>       0.25833277       0.12915003       0.55844347 </v>
   <v>       0.18528662       0.09264774       0.55581407 </v>
   <v>       0.15000375       0.07501103       0.49520816 </v>
   <v>       0.37518579       0.18759114       0.36845604 </v>
   <v>       0.40756731       0.20378505       0.54917856 </v>
   <v>       0.87047275       0.74094435       0.43758917 </v>
   <v>       0.81240534       0.62481421       0.36845604 </v>
   <v>       0.87047160       0.12952725       0.43758917 </v>
   <v>       0.81240886       0.18759466       0.36845604 </v>
   <v>       0.25905565       0.12952840       0.43758917 </v>
   <v>       0.79621775       0.59243269       0.54917856 </v>
   <v>       0.85413665       0.70841987       0.61829328 </v>
   <v>       0.79621495       0.20378225       0.54917856 </v>
   <v>       0.85428322       0.14586335       0.61829328 </v>
   <v>       0.29158013       0.14571678       0.61829328 </v>
   <v>       0.51069100       0.25534449       0.38419629 </v>
   <v>       0.40270497       0.20134864       0.32546265 </v>
   <v>       0.50151576       0.25076483       0.59934768 </v>
   <v>       0.32184094       0.16091760       0.37055747 </v>
   <v>       0.60219462       0.39781537       0.49345082 </v>
   <v>       0.60218463       0.20437925       0.49345082 </v>
   <v>       0.79562075       0.39780538       0.49345082 </v>
   <v>       0.87104692       0.93551587       0.49359509 </v>
   <v>       0.06448413       0.93553105       0.49359509 </v>
   <v>       0.06446895       0.12895308       0.49359509 </v>
   <v>       0.74465349       0.48930900       0.38419629 </v>
   <v>       0.91748338       0.83496005       0.38752893 </v>
   <v>       0.79864367       0.59729503       0.32546265 </v>
   <v>       0.83907666       0.67815906       0.37055747 </v>
   <v>       0.74465551       0.25534651       0.38419629 </v>
   <v>       0.91747666       0.08251662       0.38752893 </v>
   <v>       0.79865136       0.20135633       0.32546265 </v>
   <v>       0.83908240       0.16092334       0.37055747 </v>
   <v>       0.16503995       0.08252334       0.38752893 </v>
   <v>       0.92194121       0.84386538       0.60267882 </v>
   <v>       0.74924906       0.49848424       0.59934768 </v>
   <v>       0.82753333       0.65506199       0.61616651 </v>
   <v>       0.86800793       0.73593857       0.66129440 </v>
   <v>       0.92192417       0.07805879       0.60267882 </v>
   <v>       0.74923517       0.25075094       0.59934768 </v>
   <v>       0.82752866       0.17246667       0.61616651 </v>
   <v>       0.86793064       0.13199207       0.66129440 </v>
   <v>       0.15613462       0.07807583       0.60267882 </v>
   <v>       0.34493801       0.17247134       0.61616651 </v>
   <v>       0.26406143       0.13206936       0.66129440 </v>
  </varray>
 </structure>
 <calculation>
  <scstep>
   <time name="dav">  113.58  114.53</time>
   <time name="total">  113.74  114.70</time>
   <energy>
    <i name="alphaZ">     35.85936136 </i>
    <i name="ewald">  28381.73997461 </i>
    <i name="hartreedc"> -36426.65748264 </i>
    <i name="XCdc">    905.41410288 </i>
    <i name="pawpsdc">  24313.33056993 </i>
    <i name="pawaedc"> -24360.28332673 </i>
    <i name="eentropy">     -0.00000000 </i>
    <i name="bandstr">  -3166.66033132 </i>
    <i name="atom">   9729.24480011 </i>
    <i name="e_fr_energy">   -588.01233181 </i>
    <i name="e_wo_entrp">   -588.01233181 </i>
    <i name="e_0_energy">   -588.01233181 </i>
   </energy>
  </scstep>
  <scstep>
   <time name="dav">  125.81  126.86</time>
   <time name="total">  125.82  126.87</time>
   <energy>
    <i name="e_fr_energy">   -588.53704459 </i>
    <i name="e_wo_entrp">   -588.53704459 </i>
    <i name="e_0_energy">   -588.53704459 </i>
   </energy>
  </scstep>
  <scstep>
   <time name="dav">  132.17  133.30</time>
   <time name="total">  132.18  133.32</time>
   <energy>
    <i name="e_fr_energy">   -588.55273671 </i>
    <i name="e_wo_entrp">   -588.55273671 </i>
    <i name="e_0_energy">   -588.55273671 </i>
   </energy>
  </scstep>
  <scstep>
   <time name="dav">  126.90  127.99</time>
   <time name="total">  126.91  128.00</time>
   <energy>
    <i name="e_fr_energy">   -588.55306994 </i>
    <i name="e_wo_entrp">   -588.55306994 </i>
    <i name="e_0_energy">   -588.55306994 </i>
   </energy>
  </scstep>
  <scstep>
   <time name="dav">  120.46  121.52</time>
   <time name="total">  120.47  121.53</time>
   <energy>
    <i name="e_fr_energy">   -588.55308426 </i>
    <i name="e_wo_entrp">   -588.55308426 </i>
    <i name="e_0_energy">   -588.55308426 </i>
   </energy>
  </scstep>
  <scstep>
   <time name="dav">   97.65   98.49</time>
   <time name="total">   97.66   98.49</time>
   <energy>
    <i name="alphaZ">     35.85936136 </i>
    <i name="ewald">  28381.73997461 </i>
    <i name="hartreedc"> -36426.65748264 </i>
    <i name="XCdc">    905.41410288 </i>
    <i name="pawpsdc">  24313.33056993 </i>
    <i name="pawaedc"> -24360.28332673 </i>
    <i name="eentropy">     -0.00000000 </i>
    <i name="bandstr">  -3167.20108422 </i>
    <i name="atom">   9729.24480011 </i>
    <i name="e_fr_energy">   -588.55308471 </i>
    <i name="e_wo_entrp">   -588.55308471 </i>
    <i name="e_0_energy">   -588.55308471 </i>
   </energy>
  </scstep>
  <structure>
   <crystal>
    <varray name="basis" >
     <v>      22.27253693       0.00000000       0.00000000 </v>
     <v>     -11.13626847      19.28858278       0.00000000 </v>
     <v>       0.00000000       0.00000000      20.00000000 </v>
    </varray>
    <i name="volume">   8592.11344722 </i>
    <varray name="rec_basis" >
     <v>       0.04489834       0.02592207       0.00000000 </v>
     <v>      -0.00000000       0.05184414       0.00000000 </v>
     <v>       0.00000000       0.00000000       0.05000000 </v>
    </varray>
   </crystal>
   <varray name="positions" >
    <v>       0.37154750       0.18577006       0.49114203 </v>
    <v>       0.40842061       0.20420772       0.42832068 </v>
    <v>       0.48146464       0.24073126       0.43102828 </v>
    <v>       0.47669851       0.23835400       0.55023842 </v>
    <v>       0.59373312       0.29686836       0.49378748 </v>
    <v>       0.63047835       0.26095993       0.49391141 </v>
    <v>       0.63048158       0.36952165       0.49391141 </v>
    <v>       0.51668610       0.25834517       0.49167954 </v>
    <v>       0.70313164       0.29686476       0.49378748 </v>
    <v>       0.70313524       0.40626688       0.49378748 </v>
    <v>       0.73904007       0.36951842       0.49391141 </v>
    <v>       0.07294297       0.03647697       0.49321060 </v>
    <v>       0.03618158       0.07237369       0.49309815 </v>
    <v>       0.96352303       0.03646600       0.49321060 </v>
    <v>       0.92762631       0.96380789       0.49309815 </v>
    <v>       0.96353400       0.92705703       0.49321060 </v>
    <v>       0.03619211       0.96381842       0.49309815 </v>
    <v>       0.74165907       0.48331390       0.49167954 </v>
    <v>       0.81422257       0.62845250       0.49114203 </v>
    <v>       0.79578711       0.59157939       0.42832068 </v>
    <v>       0.75926662       0.51853536       0.43102828 </v>
    <v>       0.90504359       0.81007662       0.43659907 </v>
    <v>       0.74165483       0.25834093       0.49167954 </v>
    <v>       0.81422994       0.18577743       0.49114203 </v>
    <v>       0.79579228       0.20421289       0.42832068 </v>
    <v>       0.75926874       0.24073338       0.43102828 </v>
    <v>       0.90503303       0.09495641       0.43659907 </v>
    <v>       0.18992338       0.09496697       0.43659907 </v>
    <v>       0.76165549       0.52330149       0.55023842 </v>
    <v>       0.85241816       0.70484908       0.49558848 </v>
    <v>       0.87081726       0.74166723       0.55844347 </v>
    <v>       0.90736112       0.81471338       0.55581407 </v>
    <v>       0.92500728       0.84999625       0.49520816 </v>
    <v>       0.76164600       0.23834451       0.55023842 </v>
    <v>       0.85243092       0.14758184       0.49558848 </v>
    <v>       0.87084997       0.12918274       0.55844347 </v>
    <v>       0.90735226       0.09263888       0.55581407 </v>
    <v>       0.92498897       0.07499272       0.49520816 </v>
    <v>       0.29515092       0.14756908       0.49558848 </v>
    <v>       0.25833277       0.12915003       0.55844347 </v>
    <v>       0.18528662       0.09264774       0.55581407 </v>
    <v>       0.15000375       0.07501103       0.49520816 </v>
    <v>       0.37518579       0.18759114       0.36845604 </v>
    <v>       0.40756731       0.20378505       0.54917856 </v>
    <v>       0.87047275       0.74094435       0.43758917 </v>
    <v>       0.81240534       0.62481421       0.36845604 </v>
    <v>       0.87047160       0.12952725       0.43758917 </v>
    <v>       0.81240886       0.18759466       0.36845604 </v>
    <v>       0.25905565       0.12952840       0.43758917 </v>
    <v>       0.79621775       0.59243269       0.54917856 </v>
    <v>       0.85413665       0.70841987       0.61829328 </v>
    <v>       0.79621495       0.20378225       0.54917856 </v>
    <v>       0.85428322       0.14586335       0.61829328 </v>
    <v>       0.29158013       0.14571678       0.61829328 </v>
    <v>       0.51069100       0.25534449       0.38419629 </v>
    <v>       0.40270497       0.20134864       0.32546265 </v>
    <v>       0.50151576       0.25076483       0.59934768 </v>
    <v>       0.32184094       0.16091760       0.37055747 </v>
    <v>       0.60219462       0.39781537       0.49345082 </v>
    <v>       0.60218463       0.20437925       0.49345082 </v>
    <v>       0.79562075       0.39780538       0.49345082 </v>
    <v>       0.87104692       0.93551587       0.49359509 </v>
    <v>       0.06448413       0.93553105       0.49359509 </v>
    <v>       0.06446895       0.12895308       0.49359509 </v>
    <v>       0.74465349       0.48930900       0.38419629 </v>
    <v>       0.91748338       0.83496005       0.38752893 </v>
    <v>       0.79864367       0.59729503       0.32546265 </v>
    <v>       0.83907666       0.67815906       0.37055747 </v>
    <v>       0.74465551       0.25534651       0.38419629 </v>
    <v>       0.91747666       0.08251662       0.38752893 </v>
    <v>       0.79865136       0.20135633       0.32546265 </v>
    <v>       0.83908240       0.16092334       0.37055747 </v>
    <v>       0.16503995       0.08252334       0.38752893 </v>
    <v>       0.92194121       0.84386538       0.60267882 </v>
    <v>       0.74924906       0.49848424       0.59934768 </v>
    <v>       0.82753333       0.65506199       0.61616651 </v>
    <v>       0.86800793       0.73593857       0.66129440 </v>
    <v>       0.92192417       0.07805879       0.60267882 </v>
    <v>       0.74923517       0.25075094       0.59934768 </v>
    <v>       0.82752866       0.17246667       0.61616651 </v>
    <v>       0.86793064       0.13199207       0.66129440 </v>
    <v>       0.15613462       0.07807583       0.60267882 </v>
    <v>       0.34493801       0.17247134       0.61616651 </v>
    <v>       0.26406143       0.13206936       0.66129440 </v>
   </varray>
  </structure>
  <varray name="forces" >
   <v>      -0.00691398      -0.00385406      -0.00270796 </v>
   <v>       0.00184717       0.00116209      -0.00610806 </v>
   <v>      -0.00263416      -0.00151147      -0.00591591 </v>
   <v>       0.00006698      -0.00006202       0.00309197 </v>
   <v>      -0.00028000      -0.00084251      -0.00427365 </v>
   <v>      -0.00072991       0.00022699       0.00045606 </v>
   <v>       0.00056154       0.00051863       0.00045606 </v>
   <v>      -0.00127318      -0.00075524      -0.00398969 </v>
   <v>       0.00086963       0.00017877      -0.00427365 </v>
   <v>      -0.00058963       0.00066374      -0.00427365 </v>
   <v>       0.00016837      -0.00074562       0.00045606 </v>
   <v>      -0.00198400      -0.00073329      -0.00067546 </v>
   <v>       0.00034408      -0.00124242       0.00030886 </v>
   <v>       0.00162705      -0.00135155      -0.00067546 </v>
   <v>       0.00090393       0.00091919       0.00030886 </v>
   <v>       0.00035695       0.00208484      -0.00067546 </v>
   <v>      -0.00124801       0.00032323       0.00030886 </v>
   <v>      -0.00001747       0.00148023      -0.00398969 </v>
   <v>       0.00011928       0.00791471      -0.00270796 </v>
   <v>       0.00008281      -0.00218075      -0.00610806 </v>
   <v>       0.00000811       0.00303698      -0.00591591 </v>
   <v>      -0.00047515      -0.00216115       0.00407502 </v>
   <v>       0.00129065      -0.00072498      -0.00398969 </v>
   <v>       0.00679470      -0.00406065      -0.00270796 </v>
   <v>      -0.00192999       0.00101865      -0.00610806 </v>
   <v>       0.00262605      -0.00152552      -0.00591591 </v>
   <v>      -0.00163403       0.00149207       0.00407502 </v>
   <v>       0.00210919       0.00066908       0.00407502 </v>
   <v>      -0.00008720      -0.00002700       0.00309197 </v>
   <v>      -0.00032242       0.00143929       0.00400156 </v>
   <v>      -0.00073739       0.00451084       0.00731395 </v>
   <v>       0.00009447      -0.00752744       0.00188096 </v>
   <v>      -0.00013124       0.00803797       0.00633717 </v>
   <v>       0.00002022       0.00008902       0.00309197 </v>
   <v>       0.00140767      -0.00044041       0.00400156 </v>
   <v>       0.00427520      -0.00161682       0.00731395 </v>
   <v>      -0.00656619       0.00368190       0.00188096 </v>
   <v>       0.00702670      -0.00390533       0.00633717 </v>
   <v>      -0.00108525      -0.00099887       0.00400156 </v>
   <v>      -0.00353781      -0.00289402       0.00731395 </v>
   <v>       0.00647171       0.00384554       0.00188096 </v>
   <v>      -0.00689546      -0.00413264       0.00633717 </v>
   <v>       0.00081252       0.00044334       0.00754501 </v>
   <v>       0.00828219       0.00486667       0.00341632 </v>
   <v>       0.00023360      -0.00165622      -0.00666601 </v>
   <v>      -0.00002232      -0.00092533       0.00754501 </v>
   <v>      -0.00155113       0.00062581      -0.00666601 </v>
   <v>      -0.00079020       0.00048200       0.00754501 </v>
   <v>       0.00131753       0.00103041      -0.00666601 </v>
   <v>       0.00007356      -0.00960592       0.00341632 </v>
   <v>       0.00038361      -0.00932192      -0.00058736 </v>
   <v>      -0.00835576       0.00473926       0.00341632 </v>
   <v>      -0.00826482       0.00432874      -0.00058736 </v>
   <v>       0.00788121       0.00499318      -0.00058736 </v>
   <v>      -0.00359673      -0.00212811       0.00211167 </v>
   <v>      -0.00015238      -0.00005087      -0.00243175 </v>
   <v>       0.00121730       0.00070006      -0.00278391 </v>
   <v>      -0.00281318      -0.00155872      -0.00219097 </v>
   <v>      -0.00082859       0.00027114      -0.00258244 </v>
   <v>       0.00017948      -0.00085314      -0.00258244 </v>
   <v>       0.00064910       0.00058201      -0.00258244 </v>
   <v>      -0.00226185      -0.00149631      -0.00010772 </v>
   <v>       0.00242677      -0.00121066      -0.00010772 </v>
   <v>      -0.00016492       0.00270698      -0.00010772 </v>
   <v>      -0.00004463       0.00417892       0.00211167 </v>
   <v>       0.00012639       0.00132710      -0.00265549 </v>
   <v>       0.00003214       0.00015740      -0.00243175 </v>
   <v>       0.00005670       0.00321565      -0.00219097 </v>
   <v>       0.00364137      -0.00205081       0.00211167 </v>
   <v>       0.00108611      -0.00077301      -0.00265549 </v>
   <v>       0.00012025      -0.00010653      -0.00243175 </v>
   <v>       0.00275648      -0.00165693      -0.00219097 </v>
   <v>      -0.00121250      -0.00055409      -0.00265549 </v>
   <v>      -0.00018984       0.00095587       0.00192089 </v>
   <v>      -0.00000238      -0.00140425      -0.00278391 </v>
   <v>      -0.00047294       0.00428308       0.00221341 </v>
   <v>       0.00032692      -0.00184967      -0.00099649 </v>
   <v>       0.00092273      -0.00031352       0.00192089 </v>
   <v>      -0.00121492       0.00070418      -0.00278391 </v>
   <v>       0.00394572      -0.00173196       0.00221341 </v>
   <v>      -0.00176532       0.00064171      -0.00099649 </v>
   <v>      -0.00073288      -0.00064234       0.00192089 </v>
   <v>      -0.00347279      -0.00255111       0.00221341 </v>
   <v>       0.00143840       0.00120796      -0.00099649 </v>
  </varray>
  <varray name="stress" >
   <v>      -0.00996916      -0.00000000       0.00000000 </v>
   <v>       0.00000000      -0.00996916       0.00000000 </v>
   <v>      -0.00000000       0.00000000      -0.16452737 </v>
  </varray>
  <energy>
   <i name="e_fr_energy">   -590.24088166 </i>
   <i name="e_wo_entrp">   -590.24088166 </i>
   <i name="e_0_energy">     -0.00000000 </i>
  </energy>
  <time name="totalsc">  817.87  825.16</time>
  <eigenvalues>
   <array>
    <dimension dim="1">band</dimension>
    <dimension dim="2">kpoint</dimension>
    <dimension dim="3">spin</dimension>
    <field>eigene</field>
    <field>occ</field>
    <set>
     <set comment="spin 1">
      <set comment="kpoint 1">
       <r>  -23.4356    1.0000 </r>
       <r>  -23.4330    1.0000 </r>
       <r>  -23.4329    1.0000 </r>
       <r>  -22.7824    1.0000 </r>
       <r>  -22.7723    1.0000 </r>
       <r>  -22.7722    1.0000 </r>
       <r>  -22.3591    1.0000 </r>
       <r>  -22.3584    1.0000 </r>
       <r>  -22.3583    1.0000 </r>
       <r>  -21.9950    1.0000 </r>
       <r>  -21.9898    1.0000 </r>
       <r>  -21.9897    1.0000 </r>
       <r>  -21.2171    1.0000 </r>
       <r>  -21.1754    1.0000 </r>
       <r>  -19.8753    1.0000 </r>
       <r>  -19.8753    1.0000 </r>
       <r>  -19.6405    1.0000 </r>
       <r>  -19.6404    1.0000 </r>
       <r>  -19.0831    1.0000 </r>
       <r>  -18.7657    1.0000 </r>
       <r>  -18.3595    1.0000 </r>
       <r>  -18.3594    1.0000 </r>
       <r>  -18.3580    1.0000 </r>
       <r>  -17.9982    1.0000 </r>
       <r>  -17.9981    1.0000 </r>
       <r>  -17.9234    1.0000 </r>
       <r>  -17.9234    1.0000 </r>
       <r>  -17.3776    1.0000 </r>
       <r>  -17.0573    1.0000 </r>
       <r>  -17.0572    1.0000 </r>
       <r>  -15.7531    1.0000 </r>
       <r>  -15.7530    1.0000 </r>
       <r>  -15.7280    1.0000 </r>
       <r>  -15.3241    1.0000 </r>
       <r>  -15.3240    1.0000 </r>
       <r>  -15.3162    1.0000 </r>
       <r>  -14.9461    1.0000 </r>
       <r>  -14.9460    1.0000 </r>
       <r>  -14.6713    1.0000 </r>
       <r>  -14.6713    1.0000 </r>
       <r>  -14.6511    1.0000 </r>
       <r>  -14.5848    1.0000 </r>
       <r>  -13.8574    1.0000 </r>
       <r>  -13.8574    1.0000 </r>
       <r>  -13.8306    1.0000 </r>
       <r>  -13.8305    1.0000 </r>
       <r>  -12.9116    1.0000 </r>
       <r>  -12.7464    1.0000 </r>
       <r>  -12.6595    1.0000 </r>
       <r>  -12.6594    1.0000 </r>
       <r>  -12.6263    1.0000 </r>
       <r>  -12.6263    1.0000 </r>
       <r>  -12.5570    1.0000 </r>
       <r>  -12.4813    1.0000 </r>
       <r>  -12.3844    1.0000 </r>
       <r>  -12.3843    1.0000 </r>
       <r>  -12.1334    1.0000 </r>
       <r>  -11.7856    1.0000 </r>
       <r>  -11.7855    1.0000 </r>
       <r>  -11.6031    1.0000 </r>
       <r>  -11.4210    1.0000 </r>
       <r>  -11.3625    1.0000 </r>
       <r>  -11.3624    1.0000 </r>
       <r>  -11.0977    1.0000 </r>
       <r>  -11.0825    1.0000 </r>
       <r>  -10.9584    1.0000 </r>
       <r>  -10.8506    1.0000 </r>
       <r>  -10.8505    1.0000 </r>
       <r>  -10.8464    1.0000 </r>
       <r>  -10.6660    1.0000 </r>
       <r>  -10.6148    1.0000 </r>
       <r>  -10.6148    1.0000 </r>
       <r>  -10.5758    1.0000 </r>
       <r>  -10.5758    1.0000 </r>
       <r>  -10.4484    1.0000 </r>
       <r>   -9.9792    1.0000 </r>
       <r>   -9.9792    1.0000 </r>
       <r>   -9.8833    1.0000 </r>
       <r>   -9.8293    1.0000 </r>
       <r>   -9.8292    1.0000 </r>
       <r>   -9.4508    1.0000 </r>
       <r>   -9.2208    1.0000 </r>
       <r>   -9.2208    1.0000 </r>
       <r>   -9.1567    1.0000 </r>
       <r>   -9.1513    1.0000 </r>
       <r>   -9.1512    1.0000 </r>
       <r>   -9.1261    1.0000 </r>
       <r>   -9.1260    1.0000 </r>
       <r>   -8.9980    1.0000 </r>
       <r>   -8.9773    1.0000 </r>
       <r>   -8.9737    1.0000 </r>
       <r>   -8.9736    1.0000 </r>
       <r>   -8.7223    1.0000 </r>
       <r>   -8.6218    1.0000 </r>
       <r>   -8.6217    1.0000 </r>
       <r>   -8.4328    1.0000 </r>
       <r>   -8.1948    1.0000 </r>
       <r>   -7.9671    1.0000 </r>
       <r>   -7.9671    1.0000 </r>
       <r>   -7.9380    1.0000 </r>
       <r>   -7.9380    1.0000 </r>
       <r>   -7.8331    1.0000 </r>
       <r>   -7.8034    1.0000 </r>
       <r>   -7.8033    1.0000 </r>
       <r>   -7.5469    1.0000 </r>
       <r>   -7.5468    1.0000 </r>
       <r>   -7.5455    1.0000 </r>
       <r>   -6.7423    1.0000 </r>
       <r>   -6.7423    1.0000 </r>
       <r>   -6.5549    1.0000 </r>
       <r>   -6.0772    1.0000 </r>
       <r>   -6.0772    1.0000 </r>
       <r>   -5.9881    1.0000 </r>
       <r>   -5.9881    1.0000 </r>
       <r>   -5.8380    1.0000 </r>
       <r>   -5.8380    1.0000 </r>
       <r>   -5.7556    1.0000 </r>
       <r>   -5.6927    1.0000 </r>
       <r>   -5.4722    1.0000 </r>
       <r>   -5.4722    1.0000 </r>
       <r>   -5.3258    1.0000 </r>
       <r>   -5.2278    1.0000 </r>
       <r>   -5.2278    1.0000 </r>
       <r>   -4.9037    1.0000 </r>
       <r>   -4.9012    1.0000 </r>
       <r>   -4.9011    1.0000 </r>
       <r>   -4.1066    1.0000 </r>
       <r>   -4.1065    1.0000 </r>
       <r>   -4.0714    1.0000 </r>
       <r>   -1.7224    0.0000 </r>
       <r>   -1.7224    0.0000 </r>
       <r>   -1.5490    0.0000 </r>
       <r>   -1.1223    0.0000 </r>
       <r>   -1.1222    0.0000 </r>
       <r>   -0.9790    0.0000 </r>
       <r>   -0.9790    0.0000 </r>
       <r>   -0.7892    0.0000 </r>
       <r>   -0.5130    0.0000 </r>
       <r>   -0.5130    0.0000 </r>
       <r>   -0.4098    0.0000 </r>
       <r>   -0.2903    0.0000 </r>
       <r>   -0.2902    0.0000 </r>
       <r>   -0.2392    0.0000 </r>
       <r>   -0.1418    0.0000 </r>
       <r>    0.0796    0.0000 </r>
       <r>    0.0797    0.0000 </r>
       <r>    0.1368    0.0000 </r>
       <r>    0.1368    0.0000 </r>
       <r>    0.1533    0.0000 </r>
       <r>    0.1739    0.0000 </r>
       <r>    0.1740    0.0000 </r>
       <r>    0.3103    0.0000 </r>
       <r>    0.3712    0.0000 </r>
       <r>    0.4888    0.0000 </r>
       <r>    0.4889    0.0000 </r>
       <r>    0.5360    0.0000 </r>
       <r>    0.6265    0.0000 </r>
       <r>    0.7764    0.0000 </r>
       <r>    0.7765    0.0000 </r>
       <r>    0.8095    0.0000 </r>
       <r>    0.8692    0.0000 </r>
       <r>    0.9009    0.0000 </r>
       <r>    0.9010    0.0000 </r>
       <r>    0.9318    0.0000 </r>
       <r>    0.9446    0.0000 </r>
       <r>    0.9447    0.0000 </r>
       <r>    1.0439    0.0000 </r>
       <r>    1.0441    0.0000 </r>
       <r>    1.0813    0.0000 </r>
       <r>    1.1051    0.0000 </r>
       <r>    1.1055    0.0000 </r>
       <r>    1.1057    0.0000 </r>
       <r>    1.1670    0.0000 </r>
       <r>    1.1826    0.0000 </r>
       <r>    1.2401    0.0000 </r>
       <r>    1.2403    0.0000 </r>
      </set>
      <set comment="kpoint 2">
       <r>  -23.4356    1.0000 </r>
       <r>  -23.4330    1.0000 </r>
       <r>  -23.4329    1.0000 </r>
       <r>  -22.7824    1.0000 </r>
       <r>  -22.7724    1.0000 </r>
       <r>  -22.7722    1.0000 </r>
       <r>  -22.3591    1.0000 </r>
       <r>  -22.3584    1.0000 </r>
       <r>  -22.3583    1.0000 </r>
       <r>  -21.9950    1.0000 </r>
       <r>  -21.9898    1.0000 </r>
       <r>  -21.9897    1.0000 </r>
       <r>  -21.2170    1.0000 </r>
       <r>  -21.1754    1.0000 </r>
       <r>  -19.8753    1.0000 </r>
       <r>  -19.8750    1.0000 </r>
       <r>  -19.6410    1.0000 </r>
       <r>  -19.6405    1.0000 </r>
       <r>  -19.0825    1.0000 </r>
       <r>  -18.7661    1.0000 </r>
       <r>  -18.3595    1.0000 </r>
       <r>  -18.3594    1.0000 </r>
       <r>  -18.3580    1.0000 </r>
       <r>  -17.9981    1.0000 </r>
       <r>  -17.9980    1.0000 </r>
       <r>  -17.9236    1.0000 </r>
       <r>  -17.9234    1.0000 </r>
       <r>  -17.3770    1.0000 </r>
       <r>  -17.0577    1.0000 </r>
       <r>  -17.0573    1.0000 </r>
       <r>  -15.7531    1.0000 </r>
       <r>  -15.7530    1.0000 </r>
       <r>  -15.7281    1.0000 </r>
       <r>  -15.3240    1.0000 </r>
       <r>  -15.3240    1.0000 </r>
       <r>  -15.3162    1.0000 </r>
       <r>  -14.9461    1.0000 </r>
       <r>  -14.9456    1.0000 </r>
       <r>  -14.6715    1.0000 </r>
       <r>  -14.6713    1.0000 </r>
       <r>  -14.6511    1.0000 </r>
       <r>  -14.5852    1.0000 </r>
       <r>  -13.8574    1.0000 </r>
       <r>  -13.8573    1.0000 </r>
       <r>  -13.8306    1.0000 </r>
       <r>  -13.8305    1.0000 </r>
       <r>  -12.9112    1.0000 </r>
       <r>  -12.7465    1.0000 </r>
       <r>  -12.6595    1.0000 </r>
       <r>  -12.6594    1.0000 </r>
       <r>  -12.6266    1.0000 </r>
       <r>  -12.6263    1.0000 </r>
       <r>  -12.5567    1.0000 </r>
       <r>  -12.4813    1.0000 </r>
       <r>  -12.3844    1.0000 </r>
       <r>  -12.3842    1.0000 </r>
       <r>  -12.1342    1.0000 </r>
       <r>  -11.7856    1.0000 </r>
       <r>  -11.7849    1.0000 </r>
       <r>  -11.6032    1.0000 </r>
       <r>  -11.4209    1.0000 </r>
       <r>  -11.3626    1.0000 </r>
       <r>  -11.3625    1.0000 </r>
       <r>  -11.0977    1.0000 </r>
       <r>  -11.0825    1.0000 </r>
       <r>  -10.9582    1.0000 </r>
       <r>  -10.8506    1.0000 </r>
       <r>  -10.8505    1.0000 </r>
       <r>  -10.8463    1.0000 </r>
       <r>  -10.6665    1.0000 </r>
       <r>  -10.6158    1.0000 </r>
       <r>  -10.6148    1.0000 </r>
       <r>  -10.5759    1.0000 </r>
       <r>  -10.5758    1.0000 </r>
       <r>  -10.4465    1.0000 </r>
       <r>   -9.9793    1.0000 </r>
       <r>   -9.9791    1.0000 </r>
       <r>   -9.8836    1.0000 </r>
       <r>   -9.8303    1.0000 </r>
       <r>   -9.8290    1.0000 </r>
       <r>   -9.4501    1.0000 </r>
       <r>   -9.2210    1.0000 </r>
       <r>   -9.2209    1.0000 </r>
       <r>   -9.1567    1.0000 </r>
       <r>   -9.1513    1.0000 </r>
       <r>   -9.1510    1.0000 </r>
       <r>   -9.1261    1.0000 </r>
       <r>   -9.1260    1.0000 </r>
       <r>   -8.9982    1.0000 </r>
       <r>   -8.9773    1.0000 </r>
       <r>   -8.9737    1.0000 </r>
       <r>   -8.9736    1.0000 </r>
       <r>   -8.7223    1.0000 </r>
       <r>   -8.6221    1.0000 </r>
       <r>   -8.6218    1.0000 </r>
       <r>   -8.4322    1.0000 </r>
       <r>   -8.1951    1.0000 </r>
       <r>   -7.9670    1.0000 </r>
       <r>   -7.9670    1.0000 </r>
       <r>   -7.9380    1.0000 </r>
       <r>   -7.9380    1.0000 </r>
       <r>   -7.8331    1.0000 </r>
       <r>   -7.8034    1.0000 </r>
       <r>   -7.8033    1.0000 </r>
       <r>   -7.5469    1.0000 </r>
       <r>   -7.5468    1.0000 </r>
       <r>   -7.5455    1.0000 </r>
       <r>   -6.7423    1.0000 </r>
       <r>   -6.7421    1.0000 </r>
       <r>   -6.5553    1.0000 </r>
       <r>   -6.0774    1.0000 </r>
       <r>   -6.0772    1.0000 </r>
       <r>   -5.9880    1.0000 </r>
       <r>   -5.9876    1.0000 </r>
       <r>   -5.8385    1.0000 </r>
       <r>   -5.8380    1.0000 </r>
       <r>   -5.7558    1.0000 </r>
       <r>   -5.6921    1.0000 </r>
       <r>   -5.4726    1.0000 </r>
       <r>   -5.4722    1.0000 </r>
       <r>   -5.3255    1.0000 </r>
       <r>   -5.2279    1.0000 </r>
       <r>   -5.2278    1.0000 </r>
       <r>   -4.9037    1.0000 </r>
       <r>   -4.9012    1.0000 </r>
       <r>   -4.9011    1.0000 </r>
       <r>   -4.1066    1.0000 </r>
       <r>   -4.1065    1.0000 </r>
       <r>   -4.0715    1.0000 </r>
       <r>   -1.7224    0.0000 </r>
       <r>   -1.7221    0.0000 </r>
       <r>   -1.5493    0.0000 </r>
       <r>   -1.1222    0.0000 </r>
       <r>   -1.1220    0.0000 </r>
       <r>   -0.9793    0.0000 </r>
       <r>   -0.9790    0.0000 </r>
       <r>   -0.7888    0.0000 </r>
       <r>   -0.5139    0.0000 </r>
       <r>   -0.5130    0.0000 </r>
       <r>   -0.4091    0.0000 </r>
       <r>   -0.2904    0.0000 </r>
       <r>   -0.2903    0.0000 </r>
       <r>   -0.2390    0.0000 </r>
       <r>   -0.1419    0.0000 </r>
       <r>    0.0790    0.0000 </r>
       <r>    0.0797    0.0000 </r>
       <r>    0.1357    0.0000 </r>
       <r>    0.1371    0.0000 </r>
       <r>    0.1555    0.0000 </r>
       <r>    0.1732    0.0000 </r>
       <r>    0.1740    0.0000 </r>
       <r>    0.3113    0.0000 </r>
       <r>    0.3707    0.0000 </r>
       <r>    0.4883    0.0000 </r>
       <r>    0.4895    0.0000 </r>
       <r>    0.5363    0.0000 </r>
       <r>    0.6272    0.0000 </r>
       <r>    0.7710    0.0000 </r>
       <r>    0.7761    0.0000 </r>
       <r>    0.8147    0.0000 </r>
       <r>    0.8653    0.0000 </r>
       <r>    0.8966    0.0000 </r>
       <r>    0.9009    0.0000 </r>
       <r>    0.9355    0.0000 </r>
       <r>    0.9446    0.0000 </r>
       <r>    0.9487    0.0000 </r>
       <r>    1.0425    0.0000 </r>
       <r>    1.0437    0.0000 </r>
       <r>    1.0820    0.0000 </r>
       <r>    1.1004    0.0000 </r>
       <r>    1.1048    0.0000 </r>
       <r>    1.1122    0.0000 </r>
       <r>    1.1656    0.0000 </r>
       <r>    1.1817    0.0000 </r>
       <r>    1.2416    0.0000 </r>
       <r>    1.2434    0.0000 </r>
      </set>
      <set comment="kpoint 3">
       <r>  -23.4355    1.0000 </r>
       <r>  -23.4330    1.0000 </r>
       <r>  -23.4329    1.0000 </r>
       <r>  -22.7823    1.0000 </r>
       <r>  -22.7724    1.0000 </r>
       <r>  -22.7722    1.0000 </r>
       <r>  -22.3591    1.0000 </r>
       <r>  -22.3584    1.0000 </r>
       <r>  -22.3583    1.0000 </r>
       <r>  -21.9950    1.0000 </r>
       <r>  -21.9898    1.0000 </r>
       <r>  -21.9898    1.0000 </r>
       <r>  -21.2169    1.0000 </r>
       <r>  -21.1756    1.0000 </r>
       <r>  -19.8753    1.0000 </r>
       <r>  -19.8742    1.0000 </r>
       <r>  -19.6425    1.0000 </r>
       <r>  -19.6405    1.0000 </r>
       <r>  -19.0806    1.0000 </r>
       <r>  -18.7674    1.0000 </r>
       <r>  -18.3595    1.0000 </r>
       <r>  -18.3594    1.0000 </r>
       <r>  -18.3580    1.0000 </r>
       <r>  -17.9981    1.0000 </r>
       <r>  -17.9978    1.0000 </r>
       <r>  -17.9242    1.0000 </r>
       <r>  -17.9234    1.0000 </r>
       <r>  -17.3753    1.0000 </r>
       <r>  -17.0590    1.0000 </r>
       <r>  -17.0573    1.0000 </r>
       <r>  -15.7531    1.0000 </r>
       <r>  -15.7529    1.0000 </r>
       <r>  -15.7283    1.0000 </r>
       <r>  -15.3240    1.0000 </r>
       <r>  -15.3239    1.0000 </r>
       <r>  -15.3163    1.0000 </r>
       <r>  -14.9461    1.0000 </r>
       <r>  -14.9442    1.0000 </r>
       <r>  -14.6720    1.0000 </r>
       <r>  -14.6713    1.0000 </r>
       <r>  -14.6510    1.0000 </r>
       <r>  -14.5864    1.0000 </r>
       <r>  -13.8574    1.0000 </r>
       <r>  -13.8571    1.0000 </r>
       <r>  -13.8307    1.0000 </r>
       <r>  -13.8306    1.0000 </r>
       <r>  -12.9102    1.0000 </r>
       <r>  -12.7468    1.0000 </r>
       <r>  -12.6597    1.0000 </r>
       <r>  -12.6594    1.0000 </r>
       <r>  -12.6273    1.0000 </r>
       <r>  -12.6263    1.0000 </r>
       <r>  -12.5556    1.0000 </r>
       <r>  -12.4813    1.0000 </r>
       <r>  -12.3844    1.0000 </r>
       <r>  -12.3838    1.0000 </r>
       <r>  -12.1365    1.0000 </r>
       <r>  -11.7855    1.0000 </r>
       <r>  -11.7831    1.0000 </r>
       <r>  -11.6036    1.0000 </r>
       <r>  -11.4208    1.0000 </r>
       <r>  -11.3630    1.0000 </r>
       <r>  -11.3625    1.0000 </r>
       <r>  -11.0976    1.0000 </r>
       <r>  -11.0826    1.0000 </r>
       <r>  -10.9574    1.0000 </r>
       <r>  -10.8507    1.0000 </r>
       <r>  -10.8505    1.0000 </r>
       <r>  -10.8462    1.0000 </r>
       <r>  -10.6678    1.0000 </r>
       <r>  -10.6185    1.0000 </r>
       <r>  -10.6148    1.0000 </r>
       <r>  -10.5762    1.0000 </r>
       <r>  -10.5758    1.0000 </r>
       <r>  -10.4410    1.0000 </r>
       <r>   -9.9795    1.0000 </r>
       <r>   -9.9790    1.0000 </r>
       <r>   -9.8844    1.0000 </r>
       <r>   -9.8334    1.0000 </r>
       <r>   -9.8283    1.0000 </r>
       <r>   -9.4479    1.0000 </r>
       <r>   -9.2216    1.0000 </r>
       <r>   -9.2209    1.0000 </r>
       <r>   -9.1566    1.0000 </r>
       <r>   -9.1513    1.0000 </r>
       <r>   -9.1503    1.0000 </r>
       <r>   -9.1263    1.0000 </r>
       <r>   -9.1260    1.0000 </r>
       <r>   -8.9989    1.0000 </r>
       <r>   -8.9773    1.0000 </r>
       <r>   -8.9737    1.0000 </r>
       <r>   -8.9736    1.0000 </r>
       <r>   -8.7220    1.0000 </r>
       <r>   -8.6232    1.0000 </r>
       <r>   -8.6219    1.0000 </r>
       <r>   -8.4306    1.0000 </r>
       <r>   -8.1961    1.0000 </r>
       <r>   -7.9668    1.0000 </r>
       <r>   -7.9667    1.0000 </r>
       <r>   -7.9381    1.0000 </r>
       <r>   -7.9380    1.0000 </r>
       <r>   -7.8329    1.0000 </r>
       <r>   -7.8035    1.0000 </r>
       <r>   -7.8033    1.0000 </r>
       <r>   -7.5469    1.0000 </r>
       <r>   -7.5468    1.0000 </r>
       <r>   -7.5455    1.0000 </r>
       <r>   -6.7424    1.0000 </r>
       <r>   -6.7414    1.0000 </r>
       <r>   -6.5564    1.0000 </r>
       <r>   -6.0779    1.0000 </r>
       <r>   -6.0770    1.0000 </r>
       <r>   -5.9878    1.0000 </r>
       <r>   -5.9859    1.0000 </r>
       <r>   -5.8400    1.0000 </r>
       <r>   -5.8381    1.0000 </r>
       <r>   -5.7564    1.0000 </r>
       <r>   -5.6905    1.0000 </r>
       <r>   -5.4737    1.0000 </r>
       <r>   -5.4722    1.0000 </r>
       <r>   -5.3247    1.0000 </r>
       <r>   -5.2282    1.0000 </r>
       <r>   -5.2278    1.0000 </r>
       <r>   -4.9037    1.0000 </r>
       <r>   -4.9012    1.0000 </r>
       <r>   -4.9011    1.0000 </r>
       <r>   -4.1066    1.0000 </r>
       <r>   -4.1063    1.0000 </r>
       <r>   -4.0717    1.0000 </r>
       <r>   -1.7224    0.0000 </r>
       <r>   -1.7214    0.0000 </r>
       <r>   -1.5502    0.0000 </r>
       <r>   -1.1222    0.0000 </r>
       <r>   -1.1214    0.0000 </r>
       <r>   -0.9803    0.0000 </r>
       <r>   -0.9791    0.0000 </r>
       <r>   -0.7875    0.0000 </r>
       <r>   -0.5165    0.0000 </r>
       <r>   -0.5130    0.0000 </r>
       <r>   -0.4071    0.0000 </r>
       <r>   -0.2906    0.0000 </r>
       <r>   -0.2904    0.0000 </r>
       <r>   -0.2386    0.0000 </r>
       <r>   -0.1423    0.0000 </r>
       <r>    0.0771    0.0000 </r>
       <r>    0.0798    0.0000 </r>
       <r>    0.1335    0.0000 </r>
       <r>    0.1378    0.0000 </r>
       <r>    0.1609    0.0000 </r>
       <r>    0.1709    0.0000 </r>
       <r>    0.1740    0.0000 </r>
       <r>    0.3142    0.0000 </r>
       <r>    0.3692    0.0000 </r>
       <r>    0.4867    0.0000 </r>
       <r>    0.4914    0.0000 </r>
       <r>    0.5374    0.0000 </r>
       <r>    0.6293    0.0000 </r>
       <r>    0.7595    0.0000 </r>
       <r>    0.7752    0.0000 </r>
       <r>    0.8252    0.0000 </r>
       <r>    0.8555    0.0000 </r>
       <r>    0.8869    0.0000 </r>
       <r>    0.9008    0.0000 </r>
       <r>    0.9430    0.0000 </r>
       <r>    0.9442    0.0000 </r>
       <r>    0.9590    0.0000 </r>
       <r>    1.0386    0.0000 </r>
       <r>    1.0422    0.0000 </r>
       <r>    1.0839    0.0000 </r>
       <r>    1.0973    0.0000 </r>
       <r>    1.1034    0.0000 </r>
       <r>    1.1206    0.0000 </r>
       <r>    1.1619    0.0000 </r>
       <r>    1.1798    0.0000 </r>
       <r>    1.2456    0.0000 </r>
       <r>    1.2521    0.0000 </r>
      </set>
      <set comment="kpoint 4">
       <r>  -23.4355    1.0000 </r>
       <r>  -23.4330    1.0000 </r>
       <r>  -23.4330    1.0000 </r>
       <r>  -22.7822    1.0000 </r>
       <r>  -22.7724    1.0000 </r>
       <r>  -22.7723    1.0000 </r>
       <r>  -22.3591    1.0000 </r>
       <r>  -22.3584    1.0000 </r>
       <r>  -22.3583    1.0000 </r>
       <r>  -21.9950    1.0000 </r>
       <r>  -21.9899    1.0000 </r>
       <r>  -21.9898    1.0000 </r>
       <r>  -21.2166    1.0000 </r>
       <r>  -21.1760    1.0000 </r>
       <r>  -19.8753    1.0000 </r>
       <r>  -19.8728    1.0000 </r>
       <r>  -19.6450    1.0000 </r>
       <r>  -19.6405    1.0000 </r>
       <r>  -19.0775    1.0000 </r>
       <r>  -18.7694    1.0000 </r>
       <r>  -18.3595    1.0000 </r>
       <r>  -18.3593    1.0000 </r>
       <r>  -18.3580    1.0000 </r>
       <r>  -17.9981    1.0000 </r>
       <r>  -17.9975    1.0000 </r>
       <r>  -17.9252    1.0000 </r>
       <r>  -17.9234    1.0000 </r>
       <r>  -17.3724    1.0000 </r>
       <r>  -17.0612    1.0000 </r>
       <r>  -17.0573    1.0000 </r>
       <r>  -15.7531    1.0000 </r>
       <r>  -15.7528    1.0000 </r>
       <r>  -15.7286    1.0000 </r>
       <r>  -15.3240    1.0000 </r>
       <r>  -15.3238    1.0000 </r>
       <r>  -15.3163    1.0000 </r>
       <r>  -14.9461    1.0000 </r>
       <r>  -14.9419    1.0000 </r>
       <r>  -14.6730    1.0000 </r>
       <r>  -14.6713    1.0000 </r>
       <r>  -14.6508    1.0000 </r>
       <r>  -14.5882    1.0000 </r>
       <r>  -13.8574    1.0000 </r>
       <r>  -13.8568    1.0000 </r>
       <r>  -13.8308    1.0000 </r>
       <r>  -13.8306    1.0000 </r>
       <r>  -12.9084    1.0000 </r>
       <r>  -12.7474    1.0000 </r>
       <r>  -12.6601    1.0000 </r>
       <r>  -12.6594    1.0000 </r>
       <r>  -12.6286    1.0000 </r>
       <r>  -12.6263    1.0000 </r>
       <r>  -12.5538    1.0000 </r>
       <r>  -12.4814    1.0000 </r>
       <r>  -12.3844    1.0000 </r>
       <r>  -12.3831    1.0000 </r>
       <r>  -12.1403    1.0000 </r>
       <r>  -11.7855    1.0000 </r>
       <r>  -11.7802    1.0000 </r>
       <r>  -11.6043    1.0000 </r>
       <r>  -11.4205    1.0000 </r>
       <r>  -11.3636    1.0000 </r>
       <r>  -11.3625    1.0000 </r>
       <r>  -11.0975    1.0000 </r>
       <r>  -11.0827    1.0000 </r>
       <r>  -10.9562    1.0000 </r>
       <r>  -10.8510    1.0000 </r>
       <r>  -10.8505    1.0000 </r>
       <r>  -10.8460    1.0000 </r>
       <r>  -10.6702    1.0000 </r>
       <r>  -10.6223    1.0000 </r>
       <r>  -10.6148    1.0000 </r>
       <r>  -10.5767    1.0000 </r>
       <r>  -10.5758    1.0000 </r>
       <r>  -10.4325    1.0000 </r>
       <r>   -9.9798    1.0000 </r>
       <r>   -9.9787    1.0000 </r>
       <r>   -9.8858    1.0000 </r>
       <r>   -9.8384    1.0000 </r>
       <r>   -9.8272    1.0000 </r>
       <r>   -9.4442    1.0000 </r>
       <r>   -9.2226    1.0000 </r>
       <r>   -9.2210    1.0000 </r>
       <r>   -9.1564    1.0000 </r>
       <r>   -9.1513    1.0000 </r>
       <r>   -9.1491    1.0000 </r>
       <r>   -9.1266    1.0000 </r>
       <r>   -9.1260    1.0000 </r>
       <r>   -9.0001    1.0000 </r>
       <r>   -8.9772    1.0000 </r>
       <r>   -8.9737    1.0000 </r>
       <r>   -8.9736    1.0000 </r>
       <r>   -8.7216    1.0000 </r>
       <r>   -8.6249    1.0000 </r>
       <r>   -8.6220    1.0000 </r>
       <r>   -8.4280    1.0000 </r>
       <r>   -8.1977    1.0000 </r>
       <r>   -7.9664    1.0000 </r>
       <r>   -7.9663    1.0000 </r>
       <r>   -7.9382    1.0000 </r>
       <r>   -7.9381    1.0000 </r>
       <r>   -7.8327    1.0000 </r>
       <r>   -7.8037    1.0000 </r>
       <r>   -7.8033    1.0000 </r>
       <r>   -7.5469    1.0000 </r>
       <r>   -7.5468    1.0000 </r>
       <r>   -7.5455    1.0000 </r>
       <r>   -6.7425    1.0000 </r>
       <r>   -6.7403    1.0000 </r>
       <r>   -6.5583    1.0000 </r>
       <r>   -6.0787    1.0000 </r>
       <r>   -6.0767    1.0000 </r>
       <r>   -5.9873    1.0000 </r>
       <r>   -5.9833    1.0000 </r>
       <r>   -5.8423    1.0000 </r>
       <r>   -5.8382    1.0000 </r>
       <r>   -5.7574    1.0000 </r>
       <r>   -5.6878    1.0000 </r>
       <r>   -5.4755    1.0000 </r>
       <r>   -5.4722    1.0000 </r>
       <r>   -5.3234    1.0000 </r>
       <r>   -5.2287    1.0000 </r>
       <r>   -5.2278    1.0000 </r>
       <r>   -4.9037    1.0000 </r>
       <r>   -4.9012    1.0000 </r>
       <r>   -4.9011    1.0000 </r>
       <r>   -4.1066    1.0000 </r>
       <r>   -4.1061    1.0000 </r>
       <r>   -4.0720    1.0000 </r>
       <r>   -1.7224    0.0000 </r>
       <r>   -1.7202    0.0000 </r>
       <r>   -1.5517    0.0000 </r>
       <r>   -1.1222    0.0000 </r>
       <r>   -1.1204    0.0000 </r>
       <r>   -0.9819    0.0000 </r>
       <r>   -0.9791    0.0000 </r>
       <r>   -0.7854    0.0000 </r>
       <r>   -0.5206    0.0000 </r>
       <r>   -0.5129    0.0000 </r>
       <r>   -0.4041    0.0000 </r>
       <r>   -0.2910    0.0000 </r>
       <r>   -0.2904    0.0000 </r>
       <r>   -0.2378    0.0000 </r>
       <r>   -0.1428    0.0000 </r>
       <r>    0.0742    0.0000 </r>
       <r>    0.0799    0.0000 </r>
       <r>    0.1314    0.0000 </r>
       <r>    0.1391    0.0000 </r>
       <r>    0.1665    0.0000 </r>
       <r>    0.1688    0.0000 </r>
       <r>    0.1741    0.0000 </r>
       <r>    0.3189    0.0000 </r>
       <r>    0.3668    0.0000 </r>
       <r>    0.4843    0.0000 </r>
       <r>    0.4944    0.0000 </r>
       <r>    0.5391    0.0000 </r>
       <r>    0.6324    0.0000 </r>
       <r>    0.7462    0.0000 </r>
       <r>    0.7735    0.0000 </r>
       <r>    0.8340    0.0000 </r>
       <r>    0.8455    0.0000 </r>
       <r>    0.8754    0.0000 </r>
       <r>    0.9005    0.0000 </r>
       <r>    0.9435    0.0000 </r>
       <r>    0.9510    0.0000 </r>
       <r>    0.9723    0.0000 </r>
       <r>    1.0334    0.0000 </r>
       <r>    1.0395    0.0000 </r>
       <r>    1.0861    0.0000 </r>
       <r>    1.0962    0.0000 </r>
       <r>    1.1019    0.0000 </r>
       <r>    1.1303    0.0000 </r>
       <r>    1.1568    0.0000 </r>
       <r>    1.1777    0.0000 </r>
       <r>    1.2516    0.0000 </r>
       <r>    1.2647    0.0000 </r>
      </set>
      <set comment="kpoint 5">
       <r>  -23.4355    1.0000 </r>
       <r>  -23.4330    1.0000 </r>
       <r>  -23.4330    1.0000 </r>
       <r>  -22.7821    1.0000 </r>
[...]
       <r>   -23.2207     0.0000     6.0000 </r>
       <r>   -23.1298     0.0000     6.0000 </r>
       <r>   -23.0389     0.0000     6.0000 </r>
       <r>   -22.9480     0.0000     6.0000 </r>
       <r>   -22.8571     0.0000     6.0000 </r>
       <r>   -22.7662    58.4950    11.3175 </r>
       <r>   -22.6753     0.0000    12.0000 </r>
       <r>   -22.5844     0.0000    12.0000 </r>
       <r>   -22.4935     0.0000    12.0000 </r>
       <r>   -22.4025     0.0000    12.0000 </r>
       <r>   -22.3116    66.0024    18.0000 </r>
       <r>   -22.2207     0.0000    18.0000 </r>
       <r>   -22.1298     0.0000    18.0000 </r>
       <r>   -22.0389     0.0000    18.0000 </r>
       <r>   -21.9480    66.0024    24.0000 </r>
       <r>   -21.8571     0.0000    24.0000 </r>
       <r>   -21.7662     0.0000    24.0000 </r>
       <r>   -21.6753     0.0000    24.0000 </r>
       <r>   -21.5844     0.0000    24.0000 </r>
       <r>   -21.4935     0.0000    24.0000 </r>
       <r>   -21.4026     0.0000    24.0000 </r>
       <r>   -21.3117     0.0000    24.0000 </r>
       <r>   -21.2208     1.8590    24.1690 </r>
       <r>   -21.1299    35.4288    28.0000 </r>
       <r>   -21.0390     0.0000    28.0000 </r>
       <r>   -20.9481     0.0000    28.0000 </r>
       <r>   -20.8571     0.0000    28.0000 </r>
       <r>   -20.7662     0.0000    28.0000 </r>
       <r>   -20.6753     0.0000    28.0000 </r>
       <r>   -20.5844     0.0000    28.0000 </r>
       <r>   -20.4935     0.0000    28.0000 </r>
       <r>   -20.4026     0.0000    28.0000 </r>
       <r>   -20.3117     0.0000    28.0000 </r>
       <r>   -20.2208     0.0000    28.0000 </r>
       <r>   -20.1299     0.0000    28.0000 </r>
       <r>   -20.0390     0.0000    28.0000 </r>
       <r>   -19.9481     0.0000    28.0000 </r>
       <r>   -19.8572    27.7756    30.5250 </r>
       <r>   -19.7663    15.9508    32.1517 </r>
       <r>   -19.6754    11.9630    33.4231 </r>
       <r>   -19.5845    27.4627    36.0000 </r>
       <r>   -19.4936     0.0000    36.0000 </r>
       <r>   -19.4027     0.0000    36.0000 </r>
       <r>   -19.3117     0.0000    36.0000 </r>
       <r>   -19.2208     0.0000    36.0000 </r>
       <r>   -19.1299     0.0000    36.0000 </r>
       <r>   -19.0390     6.4296    36.5845 </r>
       <r>   -18.9481     9.3220    37.5150 </r>
       <r>   -18.8572    12.8896    38.8405 </r>
       <r>   -18.7663     9.1578    39.8665 </r>
       <r>   -18.6754     0.0000    40.0000 </r>
       <r>   -18.5845     0.0000    40.0000 </r>
       <r>   -18.4936     0.0000    40.0000 </r>
       <r>   -18.4027     0.0000    40.0000 </r>
       <r>   -18.3118    66.0024    46.0000 </r>
       <r>   -18.2209     0.0000    46.0000 </r>
       <r>   -18.1300     0.0000    46.0000 </r>
       <r>   -18.0391     0.0000    46.0000 </r>
       <r>   -17.9482    56.6716    51.1518 </r>
       <r>   -17.8573    28.1875    54.0000 </r>
       <r>   -17.7664     0.0000    54.0000 </r>
       <r>   -17.6754     0.0000    54.0000 </r>
       <r>   -17.5845     0.0000    54.0000 </r>
       <r>   -17.4936     0.0000    54.0000 </r>
       <r>   -17.4027     0.0003    54.0000 </r>
       <r>   -17.3118     8.2477    54.7498 </r>
       <r>   -17.2209    11.2687    55.8267 </r>
       <r>   -17.1300    12.8390    57.1041 </r>
       <r>   -17.0391    30.6751    59.9890 </r>
       <r>   -16.9482     0.0000    60.0000 </r>
       <r>   -16.8573     0.0000    60.0000 </r>
       <r>   -16.7664     0.0000    60.0000 </r>
       <r>   -16.6755     0.0000    60.0000 </r>
       <r>   -16.5846     0.0000    60.0000 </r>
       <r>   -16.4937     0.0000    60.0000 </r>
       <r>   -16.4028     0.0000    60.0000 </r>
       <r>   -16.3119     0.0000    60.0000 </r>
       <r>   -16.2210     0.0000    60.0000 </r>
       <r>   -16.1300     0.0000    60.0000 </r>
       <r>   -16.0391     0.0000    60.0000 </r>
       <r>   -15.9482     0.0000    60.0000 </r>
       <r>   -15.8573     0.0000    60.0000 </r>
       <r>   -15.7664     0.8687    60.0790 </r>
       <r>   -15.6755    65.1337    66.0000 </r>
       <r>   -15.5846     0.0000    66.0000 </r>
       <r>   -15.4937     0.0000    66.0000 </r>
       <r>   -15.4028     0.0000    66.0000 </r>
       <r>   -15.3119    57.0603    71.1871 </r>
       <r>   -15.2210     0.0000    72.0000 </r>
       <r>   -15.1301     0.0000    72.0000 </r>
       <r>   -15.0392     0.0000    72.0000 </r>
       <r>   -14.9483     9.2147    72.8377 </r>
       <r>   -14.8574     7.6224    74.9957 </r>
       <r>   -14.7665    13.8459    76.3333 </r>
       <r>   -14.6756    19.7416    78.2654 </r>
       <r>   -14.5846    42.6064    83.8733 </r>
       <r>   -14.4937     0.0000    84.0000 </r>
       <r>   -14.4028     0.0000    84.0000 </r>
       <r>   -14.3119     0.0000    84.0000 </r>
       <r>   -14.2210     0.0000    84.0000 </r>
       <r>   -14.1301     0.0000    84.0000 </r>
       <r>   -14.0392     0.0000    84.0000 </r>
       <r>   -13.9483     0.0000    84.0000 </r>
       <r>   -13.8574    14.7642    85.3422 </r>
       <r>   -13.7665    54.6278    92.0000 </r>
       <r>   -13.6756     0.0000    92.0000 </r>
       <r>   -13.5847     0.0000    92.0000 </r>
       <r>   -13.4938     0.0000    92.0000 </r>
       <r>   -13.4029     0.0000    92.0000 </r>
       <r>   -13.3120     0.0000    92.0000 </r>
       <r>   -13.2211     0.0000    92.0000 </r>
       <r>   -13.1302     0.0000    92.0000 </r>
       <r>   -13.0393     0.0000    92.0000 </r>
       <r>   -12.9483     0.0000    92.0000 </r>
       <r>   -12.8574     9.7271    92.8843 </r>
       <r>   -12.7665    23.9359    95.1794 </r>
       <r>   -12.6756     7.8682    96.1542 </r>
       <r>   -12.5847    75.2192   104.0000 </r>
       <r>   -12.4938    25.1267   106.2842 </r>
       <r>   -12.4029     6.7653   108.0098 </r>
       <r>   -12.3120    42.6395   111.8860 </r>
       <r>   -12.2211    11.9714   113.1902 </r>
       <r>   -12.1302     7.4404   113.9436 </r>
       <r>   -12.0393     0.0000   114.0000 </r>
       <r>   -11.9484     0.0000   114.0000 </r>
       <r>   -11.8575     0.0000   114.0000 </r>
       <r>   -11.7666    26.2454   116.3859 </r>
       <r>   -11.6757    13.4743   117.7268 </r>
       <r>   -11.5848    22.6390   119.9988 </r>
       <r>   -11.4939     0.0000   120.0000 </r>
       <r>   -11.4029    17.0913   121.5537 </r>
       <r>   -11.3120    40.1613   126.0000 </r>
       <r>   -11.2211     0.0000   126.0000 </r>
       <r>   -11.1302     0.0000   126.0000 </r>
       <r>   -11.0393    44.0016   130.0000 </r>
       <r>   -10.9484     4.4378   130.4034 </r>
       <r>   -10.8575    33.2110   133.6545 </r>
       <r>   -10.7666    33.2841   139.0543 </r>
       <r>   -10.6757     6.4754   139.7233 </r>
       <r>   -10.5848    61.6123   145.6009 </r>
       <r>   -10.4939     0.0000   148.0000 </r>
       <r>   -10.4030     4.0406   148.3673 </r>
       <r>   -10.3121     3.0410   148.7098 </r>
       <r>   -10.2212     3.5431   149.0567 </r>
       <r>   -10.1303     8.7250   149.9319 </r>
       <r>   -10.0394     9.8985   150.9671 </r>
       <r>    -9.9485    35.3412   154.2464 </r>
       <r>    -9.8576    33.1646   157.6310 </r>
       <r>    -9.7666    25.2806   160.0000 </r>
       <r>    -9.6757     0.0000   160.0000 </r>
       <r>    -9.5848     0.0000   160.0000 </r>
       <r>    -9.4939     0.0000   160.0000 </r>
       <r>    -9.4030     6.4612   160.5874 </r>
       <r>    -9.3121    12.1683   161.7741 </r>
       <r>    -9.2212    33.7642   165.0096 </r>
       <r>    -9.1303    72.2721   172.5699 </r>
       <r>    -9.0394    24.4154   177.0220 </r>
       <r>    -8.9485    74.7616   183.9992 </r>
       <r>    -8.8576     0.0000   184.0000 </r>
       <r>    -8.7667     0.0000   184.0000 </r>
       <r>    -8.6758    29.0799   186.6435 </r>
       <r>    -8.5849    32.2229   190.0000 </r>
       <r>    -8.4940     0.0000   190.0000 </r>
       <r>    -8.4031     5.7969   190.5270 </r>
       <r>    -8.3122    12.9177   191.8088 </r>
       <r>    -8.2212    15.1846   193.3840 </r>
       <r>    -8.1303     5.4482   194.0000 </r>
       <r>    -8.0394     0.0000   194.0000 </r>
       <r>    -7.9485    44.3005   198.0272 </r>
       <r>    -7.8576     0.0011   202.0001 </r>
       <r>    -7.7667    66.0013   208.0000 </r>
       <r>    -7.6758     0.0000   208.0000 </r>
       <r>    -7.5849     0.0000   208.0000 </r>
       <r>    -7.4940    66.0024   214.0000 </r>
       <r>    -7.4031     0.0000   214.0000 </r>
       <r>    -7.3122     0.0000   214.0000 </r>
       <r>    -7.2213     0.0000   214.0000 </r>
       <r>    -7.1304     0.0000   214.0000 </r>
       <r>    -7.0395     0.0000   214.0000 </r>
       <r>    -6.9486     0.0000   214.0000 </r>
       <r>    -6.8577     0.0000   214.0000 </r>
       <r>    -6.7668     0.0217   214.0020 </r>
       <r>    -6.6758    40.4729   217.6812 </r>
       <r>    -6.5849    16.2636   219.3824 </r>
       <r>    -6.4940     5.4680   220.0000 </r>
       <r>    -6.4031     0.0000   220.0000 </r>
       <r>    -6.3122     0.0000   220.0000 </r>
       <r>    -6.2213     0.0000   220.0000 </r>
       <r>    -6.1304     0.0077   220.0007 </r>
       <r>    -6.0395    39.2106   223.5652 </r>
       <r>    -5.9486    31.7455   226.6217 </r>
       <r>    -5.8577    31.6854   229.6146 </r>
       <r>    -5.7668    37.0522   233.5173 </r>
       <r>    -5.6759     5.6159   234.3849 </r>
       <r>    -5.5850    13.8746   235.7637 </r>
       <r>    -5.4941    16.7872   237.4660 </r>
       <r>    -5.4032    25.9857   240.0000 </r>
       <r>    -5.3123     5.3862   240.4896 </r>
       <r>    -5.2214    53.6773   245.5836 </r>
       <r>    -5.1305     0.0000   246.0000 </r>
       <r>    -5.0395     0.0000   246.0000 </r>
       <r>    -4.9486     0.0000   246.0000 </r>
       <r>    -4.8577    66.0024   252.0000 </r>
       <r>    -4.7668     0.0000   252.0000 </r>
       <r>    -4.6759     0.0000   252.0000 </r>
       <r>    -4.5850     0.0000   252.0000 </r>
       <r>    -4.4941     0.0000   252.0000 </r>
       <r>    -4.4032     0.0000   252.0000 </r>
       <r>    -4.3123     0.0000   252.0000 </r>
       <r>    -4.2214     0.0000   252.0000 </r>
       <r>    -4.1305     0.0098   252.0009 </r>
       <r>    -4.0396    65.9926   258.0000 </r>
       <r>    -3.9487     0.0000   258.0000 </r>
       <r>    -3.8578     0.0000   258.0000 </r>
       <r>    -3.7669     0.0000   258.0000 </r>
       <r>    -3.6760     0.0000   258.0000 </r>
       <r>    -3.5851     0.0000   258.0000 </r>
       <r>    -3.4941     0.0000   258.0000 </r>
       <r>    -3.4032     0.0000   258.0000 </r>
       <r>    -3.3123     0.0000   258.0000 </r>
       <r>    -3.2214     0.0000   258.0000 </r>
       <r>    -3.1305     0.0000   258.0000 </r>
       <r>    -3.0396     0.0000   258.0000 </r>
       <r>    -2.9487     0.0000   258.0000 </r>
       <r>    -2.8578     0.0000   258.0000 </r>
       <r>    -2.7669     0.0000   258.0000 </r>
       <r>    -2.6760     0.0000   258.0000 </r>
       <r>    -2.5851     0.0000   258.0000 </r>
       <r>    -2.4942     0.0000   258.0000 </r>
       <r>    -2.4033     0.0000   258.0000 </r>
       <r>    -2.3124     0.0000   258.0000 </r>
       <r>    -2.2215     0.0000   258.0000 </r>
       <r>    -2.1306     0.0000   258.0000 </r>
       <r>    -2.0397     0.0000   258.0000 </r>
       <r>    -1.9487     0.0000   258.0000 </r>
       <r>    -1.8578     0.0000   258.0000 </r>
       <r>    -1.7669     0.0000   258.0000 </r>
       <r>    -1.6760    33.3666   261.0332 </r>
       <r>    -1.5851    20.1398   263.2376 </r>
       <r>    -1.4942     6.9370   264.0000 </r>
       <r>    -1.4033     0.0000   264.0000 </r>
       <r>    -1.3124     0.0000   264.0000 </r>
       <r>    -1.2215     0.0000   264.0000 </r>
       <r>    -1.1306     2.4081   264.2189 </r>
       <r>    -1.0397    25.4477   268.5853 </r>
       <r>    -0.9488    32.9620   272.0000 </r>
       <r>    -0.8579     0.0000   272.0000 </r>
       <r>    -0.7670     5.4999   272.5000 </r>
       <r>    -0.6761    13.7402   273.8836 </r>
       <r>    -0.5852    12.6281   275.2497 </r>
       <r>    -0.4943    29.1810   277.9872 </r>
       <r>    -0.4034     2.3244   278.2113 </r>
       <r>    -0.3124    25.7266   280.7089 </r>
       <r>    -0.2215    38.4452   284.7395 </r>
       <r>    -0.1306    32.7085   287.9815 </r>
       <r>    -0.0397     0.0000   288.0000 </r>
       <r>     0.0512     8.1634   288.7421 </r>
       <r>     0.1421    68.5198   295.7420 </r>
       <r>     0.2330    47.9918   300.5061 </r>
       <r>     0.3239    24.6305   303.0428 </r>
       <r>     0.4148    24.5943   305.6070 </r>
       <r>     0.5057    24.6201   308.2381 </r>
       <r>     0.5966    35.1439   311.7337 </r>
       <r>     0.6875    45.3295   316.0946 </r>
       <r>     0.7784    40.0102   319.9846 </r>
       <r>     0.8693    31.3779   323.4904 </r>
       <r>     0.9602    68.5412   330.1706 </r>
       <r>     1.0511    39.4704   334.3954 </r>
       <r>     1.1420    60.7807   340.3302 </r>
       <r>     1.2330    58.1732   346.2620 </r>
       <r>     1.3239    47.1627   350.9611 </r>
       <r>     1.4148     4.6916   352.0000 </r>
       <r>     1.5057     0.0000   352.0000 </r>
       <r>     1.5966     0.0000   352.0000 </r>
       <r>     1.6875     0.0000   352.0000 </r>
       <r>     1.7784     0.0000   352.0000 </r>
       <r>     1.8693     0.0000   352.0000 </r>
       <r>     1.9602     0.0000   352.0000 </r>
       <r>     2.0511     0.0000   352.0000 </r>
       <r>     2.1420     0.0000   352.0000 </r>
       <r>     2.2329     0.0000   352.0000 </r>
       <r>     2.3238     0.0000   352.0000 </r>
       <r>     2.4147     0.0000   352.0000 </r>
       <r>     2.5056     0.0000   352.0000 </r>
       <r>     2.5965     0.0000   352.0000 </r>
      </set>
     </set>
    </array>
   </total>
  </dos>
 </calculation>
 <structure name="finalpos" >
  <crystal>
   <varray name="basis" >
    <v>      22.27253693       0.00000000       0.00000000 </v>
    <v>     -11.13626847      19.28858278       0.00000000 </v>
    <v>       0.00000000       0.00000000      20.00000000 </v>
   </varray>
   <i name="volume">   8592.11344722 </i>
   <varray name="rec_basis" >
    <v>       0.04489834       0.02592207       0.00000000 </v>
    <v>      -0.00000000       0.05184414       0.00000000 </v>
    <v>       0.00000000       0.00000000       0.05000000 </v>
   </varray>
  </crystal>
  <varray name="positions" >
   <v>       0.37154750       0.18577006       0.49114203 </v>
   <v>       0.40842061       0.20420772       0.42832068 </v>
   <v>       0.48146464       0.24073126       0.43102828 </v>
   <v>       0.47669851       0.23835400       0.55023842 </v>
   <v>       0.59373312       0.29686836       0.49378748 </v>
   <v>       0.63047835       0.26095993       0.49391141 </v>
   <v>       0.63048158       0.36952165       0.49391141 </v>
   <v>       0.51668610       0.25834517       0.49167954 </v>
   <v>       0.70313164       0.29686476       0.49378748 </v>
   <v>       0.70313524       0.40626688       0.49378748 </v>
   <v>       0.73904007       0.36951842       0.49391141 </v>
   <v>       0.07294297       0.03647697       0.49321060 </v>
   <v>       0.03618158       0.07237369       0.49309815 </v>
   <v>       0.96352303       0.03646600       0.49321060 </v>
   <v>       0.92762631       0.96380789       0.49309815 </v>
   <v>       0.96353400       0.92705703       0.49321060 </v>
   <v>       0.03619211       0.96381842       0.49309815 </v>
   <v>       0.74165907       0.48331390       0.49167954 </v>
   <v>       0.81422257       0.62845250       0.49114203 </v>
   <v>       0.79578711       0.59157939       0.42832068 </v>
   <v>       0.75926662       0.51853536       0.43102828 </v>
   <v>       0.90504359       0.81007662       0.43659907 </v>
   <v>       0.74165483       0.25834093       0.49167954 </v>
   <v>       0.81422994       0.18577743       0.49114203 </v>
   <v>       0.79579228       0.20421289       0.42832068 </v>
   <v>       0.75926874       0.24073338       0.43102828 </v>
   <v>       0.90503303       0.09495641       0.43659907 </v>
   <v>       0.18992338       0.09496697       0.43659907 </v>
   <v>       0.76165549       0.52330149       0.55023842 </v>
   <v>       0.85241816       0.70484908       0.49558848 </v>
   <v>       0.87081726       0.74166723       0.55844347 </v>
   <v>       0.90736112       0.81471338       0.55581407 </v>
   <v>       0.92500728       0.84999625       0.49520816 </v>
   <v>       0.76164600       0.23834451       0.55023842 </v>
   <v>       0.85243092       0.14758184       0.49558848 </v>
   <v>       0.87084997       0.12918274       0.55844347 </v>
   <v>       0.90735226       0.09263888       0.55581407 </v>
   <v>       0.92498897       0.07499272       0.49520816 </v>
   <v>       0.29515092       0.14756908       0.49558848 </v>
   <v>       0.25833277       0.12915003       0.55844347 </v>
   <v>       0.18528662       0.09264774       0.55581407 </v>
   <v>       0.15000375       0.07501103       0.49520816 </v>
   <v>       0.37518579       0.18759114       0.36845604 </v>
   <v>       0.40756731       0.20378505       0.54917856 </v>
   <v>       0.87047275       0.74094435       0.43758917 </v>
   <v>       0.81240534       0.62481421       0.36845604 </v>
   <v>       0.87047160       0.12952725       0.43758917 </v>
   <v>       0.81240886       0.18759466       0.36845604 </v>
   <v>       0.25905565       0.12952840       0.43758917 </v>
   <v>       0.79621775       0.59243269       0.54917856 </v>
   <v>       0.85413665       0.70841987       0.61829328 </v>
   <v>       0.79621495       0.20378225       0.54917856 </v>
   <v>       0.85428322       0.14586335       0.61829328 </v>
   <v>       0.29158013       0.14571678       0.61829328 </v>
   <v>       0.51069100       0.25534449       0.38419629 </v>
   <v>       0.40270497       0.20134864       0.32546265 </v>
   <v>       0.50151576       0.25076483       0.59934768 </v>
   <v>       0.32184094       0.16091760       0.37055747 </v>
   <v>       0.60219462       0.39781537       0.49345082 </v>
   <v>       0.60218463       0.20437925       0.49345082 </v>
   <v>       0.79562075       0.39780538       0.49345082 </v>
   <v>       0.87104692       0.93551587       0.49359509 </v>
   <v>       0.06448413       0.93553105       0.49359509 </v>
   <v>       0.06446895       0.12895308       0.49359509 </v>
   <v>       0.74465349       0.48930900       0.38419629 </v>
   <v>       0.91748338       0.83496005       0.38752893 </v>
   <v>       0.79864367       0.59729503       0.32546265 </v>
   <v>       0.83907666       0.67815906       0.37055747 </v>
   <v>       0.74465551       0.25534651       0.38419629 </v>
   <v>       0.91747666       0.08251662       0.38752893 </v>
   <v>       0.79865136       0.20135633       0.32546265 </v>
   <v>       0.83908240       0.16092334       0.37055747 </v>
   <v>       0.16503995       0.08252334       0.38752893 </v>
   <v>       0.92194121       0.84386538       0.60267882 </v>
   <v>       0.74924906       0.49848424       0.59934768 </v>
   <v>       0.82753333       0.65506199       0.61616651 </v>
   <v>       0.86800793       0.73593857       0.66129440 </v>
   <v>       0.92192417       0.07805879       0.60267882 </v>
   <v>       0.74923517       0.25075094       0.59934768 </v>
   <v>       0.82752866       0.17246667       0.61616651 </v>
   <v>       0.86793064       0.13199207       0.66129440 </v>
   <v>       0.15613462       0.07807583       0.60267882 </v>
   <v>       0.34493801       0.17247134       0.61616651 </v>
   <v>       0.26406143       0.13206936       0.66129440 </v>
  </varray>
 </structure>
</modeling>
