<?xml version="1.0" encoding="ISO-8859-1"?>
<modeling>
 <generator>
  <i name="program" type="string">vasp </i>
  <i name="version" type="string">5.4.4.18Apr17-6-g9f103f2a35  </i>
  <i name="subversion" type="string">(build Jun 07 2020 16:50:00) complex            parallel </i>
  <i name="platform" type="string">LinuxIFC </i>
  <i name="date" type="string">2023 02 16 </i>
  <i name="time" type="string">18:36:05 </i>
 </generator>
 <incar>
  <i type="string" name="SYSTEM">Simulation for cell shape cell volume r</i>
  <i type="int" name="ISTART">     1</i>
  <i type="string" name="PREC">high</i>
  <i type="string" name="ALGO">48</i>
  <i type="int" name="ICHARG">    11</i>
  <i type="int" name="NELM">   200</i>
  <i type="int" name="IBRION">    -1</i>
  <i name="EDIFF">      0.00001000</i>
  <i name="EDIFFG">     -0.01000000</i>
  <i type="int" name="NSW">     0</i>
  <i type="int" name="ISIF">     2</i>
  <i name="ENCUT">    500.00000000</i>
  <i name="POTIM">      0.30000000</i>
  <i type="string" name="LREAL">A</i>
  <i type="int" name="ISMEAR">     0</i>
  <i name="SIGMA">      0.01000000</i>
  <i type="int" name="NWRITE">     0</i>
  <i type="logical" name="LWAVE"> F  </i>
  <i type="logical" name="LCHARG"> F  </i>
  <v type="int" name="KPOINT_BSE">    -1     0     0     0</v>
  <i type="int" name="NELM">   200</i>
  <i type="string" name="GGA">PE</i>
 </incar>
 <structure name="primitive_cell" >
  <crystal>
   <varray name="basis" >
    <v>      22.51504242      -0.00681186       0.00000000 </v>
    <v>     -11.25300352      19.50404840       0.00000000 </v>
    <v>       0.00000000       0.00000000      20.00000000 </v>
   </varray>
   <i name="volume">   8781.15646566 </i>
   <varray name="rec_basis" >
    <v>       0.04442251       0.02562989       0.00000000 </v>
    <v>       0.00001551       0.05128036       0.00000000 </v>
    <v>       0.00000000       0.00000000       0.05000000 </v>
   </varray>
  </crystal>
  <varray name="positions" >
   <v>      -0.10052901       0.09470887       0.42838048 </v>
   <v>      -0.08518907       0.07835508       0.48767694 </v>
   <v>      -0.13498462       0.12923378       0.42720940 </v>
   <v>      -0.15405403       0.14731372       0.48769692 </v>
   <v>      -0.10435666       0.09637416      -0.45163184 </v>
   <v>      -0.04691159       0.04019007       0.48747685 </v>
   <v>      -0.15107535       0.14637891       0.35943306 </v>
   <v>      -0.18115312       0.09912915       0.33031969 </v>
   <v>      -0.10329421       0.17802845       0.33154613 </v>
   <v>      -0.13869046       0.13076747      -0.45271684 </v>
   <v>       0.02483984       0.07585429       0.48798152 </v>
   <v>      -0.08248981      -0.03154365       0.48744926 </v>
   <v>       0.05276100       0.13183582       0.48758175 </v>
   <v>      -0.13847090      -0.05961219       0.48661483 </v>
   <v>      -0.17974659       0.17378253       0.36258632 </v>
   <v>      -0.19236509       0.18553607       0.48909264 </v>
   <v>      -0.08758987       0.07830852      -0.38458636 </v>
   <v>      -0.03190128       0.10061152      -0.37830149 </v>
   <v>      -0.11031784       0.02248826      -0.37909403 </v>
   <v>      -0.10033730       0.28513791       0.48963152 </v>
   <v>      -0.29186998       0.09330813       0.48865097 </v>
   <v>      -0.10715915       0.09745096      -0.34488833 </v>
   <v>       0.06103956       0.04030153       0.48809741 </v>
   <v>      -0.04681189      -0.06759989       0.48769346 </v>
   <v>      -0.15630844       0.25748800       0.48982555 </v>
   <v>      -0.26431005       0.14926202       0.48965148 </v>
   <v>       0.02493636      -0.03144011       0.48824880 </v>
   <v>       0.13750392       0.07854280       0.48840117 </v>
   <v>      -0.08499388      -0.14402181       0.48783438 </v>
   <v>      -0.19198185       0.29344596       0.49158745 </v>
   <v>      -0.30047758       0.18472818       0.49136023 </v>
   <v>       0.10703759       0.10404859      -0.37826717 </v>
   <v>      -0.10643617      -0.11315704      -0.37800685 </v>
   <v>      -0.10183659      -0.17555236       0.42846825 </v>
   <v>       0.16915615       0.09357197       0.42909004 </v>
   <v>       0.05296561      -0.05940240       0.48803442 </v>
   <v>      -0.09830225       0.37077345       0.36664738 </v>
   <v>      -0.26373880       0.25647524       0.49250533 </v>
   <v>       0.17477131       0.09792789      -0.45096456 </v>
   <v>      -0.10259936      -0.18135995      -0.45158673 </v>
   <v>       0.14005287       0.08123720      -0.38385939 </v>
   <v>      -0.18711931       0.33315406       0.35104760 </v>
   <v>      -0.08439245      -0.14675415      -0.38443801 </v>
   <v>       0.10660016       0.02555811      -0.37757954 </v>
   <v>      -0.02854069      -0.11392590      -0.37887174 </v>
   <v>      -0.34664418       0.12410564      -0.38523454 </v>
   <v>      -0.14090541       0.38143452       0.36511863 </v>
   <v>      -0.16136673       0.36954417       0.49172429 </v>
   <v>      -0.37657628       0.15393245       0.49231107 </v>
   <v>      -0.13617966      -0.24452034       0.42708928 </v>
   <v>       0.23812971       0.12812952       0.42781296 </v>
   <v>      -0.18433870      -0.26058838       0.33115301 </v>
   <v>       0.25415542       0.17398633       0.33076900 </v>
   <v>      -0.29182754       0.28437130       0.49392377 </v>
   <v>      -0.40751237       0.14787047       0.43335085 </v>
   <v>      -0.15071212       0.40660732       0.43142756 </v>
   <v>       0.17885236       0.10074659      -0.34423025 </v>
   <v>       0.24350474       0.13233540      -0.45214503 </v>
   <v>      -0.10374207      -0.18562142      -0.34488713 </v>
   <v>      -0.13692766      -0.25007476      -0.45287877 </v>
   <v>      -0.13069000       0.41988612       0.32645458 </v>
   <v>      -0.38705185       0.13747343      -0.38031581 </v>
   <v>      -0.15729597       0.39937944      -0.44932482 </v>
   <v>      -0.15349582      -0.27757119       0.35922780 </v>
   <v>       0.27123109       0.14388229       0.35996898 </v>
   <v>       0.27536094       0.14756333       0.48824887 </v>
   <v>      -0.15377074      -0.28182422       0.48746957 </v>
   <v>      -0.41239736       0.14561215      -0.44719554 </v>
   <v>      -0.10621836      -0.26113282       0.33035925 </v>
   <v>       0.25487036       0.09598398       0.33222877 </v>
   <v>      -0.36608841       0.18543466      -0.35151471 </v>
   <v>      -0.42984430       0.09763500      -0.35124795 </v>
   <v>      -0.46880879       0.14410103       0.43199637 </v>
   <v>      -0.18167238      -0.33365945       0.36227536 </v>
   <v>       0.32731633       0.17241860       0.36298750 </v>
   <v>      -0.15461492       0.46406235       0.43288117 </v>
   <v>      -0.47544770       0.12470902       0.32690462 </v>
   <v>       0.35943113       0.28545908       0.48824294 </v>
   <v>      -0.29152005      -0.36573535       0.48968794 </v>
   <v>      -0.15278420       0.46108723      -0.44768026 </v>
   <v>      -0.46968231       0.14998635      -0.44871466 </v>
   <v>       0.35190479       0.18586800       0.48955684 </v>
   <v>      -0.19199323      -0.35833558       0.48878399 </v>
   <v>       0.49635993       0.13483428       0.36569493 </v>
   <v>      -0.16076696       0.48883164       0.49184903 </v>
   <v>      -0.49531517       0.15443643       0.49239629 </v>
   <v>       0.38772784       0.25780800       0.48954619 </v>
   <v>      -0.26394246      -0.39412191       0.48978848 </v>
   <v>      -0.10537158       0.49116608      -0.35142987 </v>
   <v>      -0.14495906       0.49434410      -0.38072602 </v>
   <v>       0.44302191       0.09238716       0.36707954 </v>
   <v>       0.49453264       0.18124866       0.35195135 </v>
   <v>       0.35915558       0.09369495       0.49093769 </v>
   <v>      -0.09983529      -0.36570811       0.48796957 </v>
   <v>       0.38764765       0.14965802       0.49072322 </v>
   <v>      -0.15578689      -0.39406474       0.48915673 </v>
   <v>      -0.19311779       0.46734036      -0.35221972 </v>
   <v>      -0.37677945      -0.44955975       0.36668222 </v>
   <v>      -0.29102966       0.44341395       0.49384384 </v>
   <v>      -0.44978343       0.28490089       0.49387410 </v>
   <v>      -0.19133586      -0.46568931       0.49096451 </v>
   <v>       0.45938067       0.29382020       0.49112765 </v>
   <v>       0.45928998       0.18516544       0.49225967 </v>
   <v>      -0.29996293      -0.46573703       0.49162221 </v>
   <v>      -0.13144280      -0.45183511      -0.38550161 </v>
   <v>       0.44473850       0.34082803      -0.38580979 </v>
   <v>      -0.26307438       0.49940201       0.49238108 </v>
   <v>       0.49422344       0.25692710       0.49261381 </v>
   <v>      -0.38756513       0.49713870       0.36508119 </v>
   <v>      -0.33931975       0.49911797       0.35101293 </v>
   <v>      -0.49513801       0.36989778       0.49177978 </v>
   <v>      -0.37604034       0.48877303       0.49175784 </v>
   <v>      -0.47017241       0.40067420       0.43277475 </v>
   <v>       0.49871508       0.38070571      -0.38090553 </v>
   <v>      -0.41286224       0.46213984       0.43136772 </v>
   <v>      -0.42600434       0.46901918       0.32638077 </v>
   <v>      -0.40603896       0.46313515      -0.44932767 </v>
   <v>      -0.49763509       0.42373250      -0.35171019 </v>
   <v>      -0.46771781       0.40587392      -0.44778423 </v>
   <v>      -0.47481335       0.35907974      -0.35223562 </v>
  </varray>
 </structure>
 <varray name="primitive_index" >
  <v type="int" >        1 </v>
  <v type="int" >       73 </v>
  <v type="int" >       67 </v>
  <v type="int" >       68 </v>
  <v type="int" >       74 </v>
  <v type="int" >       61 </v>
  <v type="int" >       66 </v>
  <v type="int" >       16 </v>
  <v type="int" >       18 </v>
  <v type="int" >        4 </v>
  <v type="int" >       63 </v>
  <v type="int" >       62 </v>
  <v type="int" >       13 </v>
  <v type="int" >       14 </v>
  <v type="int" >       17 </v>
  <v type="int" >       64 </v>
  <v type="int" >       75 </v>
  <v type="int" >       23 </v>
  <v type="int" >       25 </v>
  <v type="int" >       15 </v>
  <v type="int" >       26 </v>
  <v type="int" >       24 </v>
  <v type="int" >       86 </v>
  <v type="int" >       84 </v>
  <v type="int" >       65 </v>
  <v type="int" >       76 </v>
  <v type="int" >       85 </v>
  <v type="int" >      113 </v>
  <v type="int" >      110 </v>
  <v type="int" >       77 </v>
  <v type="int" >       79 </v>
  <v type="int" >       55 </v>
  <v type="int" >       50 </v>
  <v type="int" >        7 </v>
  <v type="int" >        8 </v>
  <v type="int" >       32 </v>
  <v type="int" >       21 </v>
  <v type="int" >       78 </v>
  <v type="int" >      114 </v>
  <v type="int" >      111 </v>
  <v type="int" >      115 </v>
  <v type="int" >       19 </v>
  <v type="int" >      112 </v>
  <v type="int" >       53 </v>
  <v type="int" >       52 </v>
  <v type="int" >       30 </v>
  <v type="int" >       71 </v>
  <v type="int" >       69 </v>
  <v type="int" >       83 </v>
  <v type="int" >       92 </v>
  <v type="int" >       95 </v>
  <v type="int" >       37 </v>
  <v type="int" >       38 </v>
  <v type="int" >       27 </v>
  <v type="int" >        3 </v>
  <v type="int" >       70 </v>
  <v type="int" >       54 </v>
  <v type="int" >       11 </v>
  <v type="int" >       51 </v>
  <v type="int" >       10 </v>
  <v type="int" >       20 </v>
  <v type="int" >       81 </v>
  <v type="int" >        5 </v>
  <v type="int" >       91 </v>
  <v type="int" >       94 </v>
  <v type="int" >       96 </v>
  <v type="int" >       93 </v>
  <v type="int" >       82 </v>
  <v type="int" >       35 </v>
  <v type="int" >       40 </v>
  <v type="int" >       31 </v>
  <v type="int" >       29 </v>
  <v type="int" >       72 </v>
  <v type="int" >       36 </v>
  <v type="int" >       39 </v>
  <v type="int" >        2 </v>
  <v type="int" >       22 </v>
  <v type="int" >       48 </v>
  <v type="int" >       33 </v>
  <v type="int" >       80 </v>
  <v type="int" >        6 </v>
  <v type="int" >       89 </v>
  <v type="int" >       87 </v>
  <v type="int" >      101 </v>
  <v type="int" >      117 </v>
  <v type="int" >      100 </v>
  <v type="int" >      109 </v>
  <v type="int" >       88 </v>
  <v type="int" >       28 </v>
  <v type="int" >      116 </v>
  <v type="int" >       45 </v>
  <v type="int" >       44 </v>
  <v type="int" >       34 </v>
  <v type="int" >       46 </v>
  <v type="int" >       90 </v>
  <v type="int" >      105 </v>
  <v type="int" >       57 </v>
  <v type="int" >       43 </v>
  <v type="int" >       47 </v>
  <v type="int" >       49 </v>
  <v type="int" >      104 </v>
  <v type="int" >      108 </v>
  <v type="int" >      106 </v>
  <v type="int" >      102 </v>
  <v type="int" >       56 </v>
  <v type="int" >       59 </v>
  <v type="int" >      103 </v>
  <v type="int" >      107 </v>
  <v type="int" >       99 </v>
  <v type="int" >       41 </v>
  <v type="int" >      120 </v>
  <v type="int" >       97 </v>
  <v type="int" >        9 </v>
  <v type="int" >      118 </v>
  <v type="int" >       98 </v>
  <v type="int" >       42 </v>
  <v type="int" >       12 </v>
  <v type="int" >       58 </v>
  <v type="int" >      119 </v>
  <v type="int" >       60 </v>
 </varray>
 <kpoints>
  <generation param="listgenerated">
   <i name="divisions" type="int">      20 </i>
   <v>       0.00000000       0.00000000       0.00000000 </v>
   <v>       0.50000000       0.00000000       0.00000000 </v>
   <v>       0.33333333       0.33333333       0.00000000 </v>
   <v>       0.00000000       0.00000000       0.00000000 </v>
  </generation>
  <varray name="kpointlist" >
   <v>       0.00000000       0.00000000       0.00000000 </v>
   <v>       0.02631579       0.00000000       0.00000000 </v>
   <v>       0.05263158       0.00000000       0.00000000 </v>
   <v>       0.07894737       0.00000000       0.00000000 </v>
   <v>       0.10526316       0.00000000       0.00000000 </v>
   <v>       0.13157895       0.00000000       0.00000000 </v>
   <v>       0.15789474       0.00000000       0.00000000 </v>
   <v>       0.18421053       0.00000000       0.00000000 </v>
   <v>       0.21052632       0.00000000       0.00000000 </v>
   <v>       0.23684211       0.00000000       0.00000000 </v>
   <v>       0.26315789       0.00000000       0.00000000 </v>
   <v>       0.28947368       0.00000000       0.00000000 </v>
   <v>       0.31578947       0.00000000       0.00000000 </v>
   <v>       0.34210526       0.00000000       0.00000000 </v>
   <v>       0.36842105       0.00000000       0.00000000 </v>
   <v>       0.39473684       0.00000000       0.00000000 </v>
   <v>       0.42105263       0.00000000       0.00000000 </v>
   <v>       0.44736842       0.00000000       0.00000000 </v>
   <v>       0.47368421       0.00000000       0.00000000 </v>
   <v>       0.50000000       0.00000000       0.00000000 </v>
   <v>       0.50000000       0.00000000       0.00000000 </v>
   <v>       0.49122807       0.01754386       0.00000000 </v>
   <v>       0.48245614       0.03508772       0.00000000 </v>
   <v>       0.47368421       0.05263158       0.00000000 </v>
   <v>       0.46491228       0.07017544       0.00000000 </v>
   <v>       0.45614035       0.08771930       0.00000000 </v>
   <v>       0.44736842       0.10526316       0.00000000 </v>
   <v>       0.43859649       0.12280702       0.00000000 </v>
   <v>       0.42982456       0.14035088       0.00000000 </v>
   <v>       0.42105263       0.15789474       0.00000000 </v>
   <v>       0.41228070       0.17543860       0.00000000 </v>
   <v>       0.40350877       0.19298246       0.00000000 </v>
   <v>       0.39473684       0.21052632       0.00000000 </v>
   <v>       0.38596491       0.22807018       0.00000000 </v>
   <v>       0.37719298       0.24561404       0.00000000 </v>
   <v>       0.36842105       0.26315789       0.00000000 </v>
   <v>       0.35964912       0.28070175       0.00000000 </v>
   <v>       0.35087719       0.29824561       0.00000000 </v>
   <v>       0.34210526       0.31578947       0.00000000 </v>
   <v>       0.33333333       0.33333333       0.00000000 </v>
   <v>       0.33333333       0.33333333       0.00000000 </v>
   <v>       0.31578947       0.31578947       0.00000000 </v>
   <v>       0.29824561       0.29824561       0.00000000 </v>
   <v>       0.28070175       0.28070175       0.00000000 </v>
   <v>       0.26315789       0.26315789       0.00000000 </v>
   <v>       0.24561404       0.24561404       0.00000000 </v>
   <v>       0.22807018       0.22807018       0.00000000 </v>
   <v>       0.21052632       0.21052632       0.00000000 </v>
   <v>       0.19298246       0.19298246       0.00000000 </v>
   <v>       0.17543860       0.17543860       0.00000000 </v>
   <v>       0.15789474       0.15789474       0.00000000 </v>
   <v>       0.14035088       0.14035088       0.00000000 </v>
   <v>       0.12280702       0.12280702       0.00000000 </v>
   <v>       0.10526316       0.10526316       0.00000000 </v>
   <v>       0.08771930       0.08771930       0.00000000 </v>
   <v>       0.07017544       0.07017544       0.00000000 </v>
   <v>       0.05263158       0.05263158       0.00000000 </v>
   <v>       0.03508772       0.03508772       0.00000000 </v>
   <v>       0.01754386       0.01754386       0.00000000 </v>
   <v>       0.00000000       0.00000000       0.00000000 </v>
  </varray>
  <varray name="weights" >
   <v>       0.01666667 </v>
   <v>       0.01666667 </v>
   <v>       0.01666667 </v>
   <v>       0.01666667 </v>
   <v>       0.01666667 </v>
   <v>       0.01666667 </v>
   <v>       0.01666667 </v>
   <v>       0.01666667 </v>
   <v>       0.01666667 </v>
   <v>       0.01666667 </v>
   <v>       0.01666667 </v>
   <v>       0.01666667 </v>
   <v>       0.01666667 </v>
   <v>       0.01666667 </v>
   <v>       0.01666667 </v>
   <v>       0.01666667 </v>
   <v>       0.01666667 </v>
   <v>       0.01666667 </v>
   <v>       0.01666667 </v>
   <v>       0.01666667 </v>
   <v>       0.01666667 </v>
   <v>       0.01666667 </v>
   <v>       0.01666667 </v>
   <v>       0.01666667 </v>
   <v>       0.01666667 </v>
   <v>       0.01666667 </v>
   <v>       0.01666667 </v>
   <v>       0.01666667 </v>
   <v>       0.01666667 </v>
   <v>       0.01666667 </v>
   <v>       0.01666667 </v>
   <v>       0.01666667 </v>
   <v>       0.01666667 </v>
   <v>       0.01666667 </v>
   <v>       0.01666667 </v>
   <v>       0.01666667 </v>
   <v>       0.01666667 </v>
   <v>       0.01666667 </v>
   <v>       0.01666667 </v>
   <v>       0.01666667 </v>
   <v>       0.01666667 </v>
   <v>       0.01666667 </v>
   <v>       0.01666667 </v>
   <v>       0.01666667 </v>
   <v>       0.01666667 </v>
   <v>       0.01666667 </v>
   <v>       0.01666667 </v>
   <v>       0.01666667 </v>
   <v>       0.01666667 </v>
   <v>       0.01666667 </v>
   <v>       0.01666667 </v>
   <v>       0.01666667 </v>
   <v>       0.01666667 </v>
   <v>       0.01666667 </v>
   <v>       0.01666667 </v>
   <v>       0.01666667 </v>
   <v>       0.01666667 </v>
   <v>       0.01666667 </v>
   <v>       0.01666667 </v>
   <v>       0.01666667 </v>
  </varray>
 </kpoints>
 <parameters>
  <separator name="general" >
   <i type="string" name="SYSTEM">Simulation for cell shape cell volume r</i>
   <i type="logical" name="LCOMPAT"> F  </i>
  </separator>
  <separator name="electronic" >
   <i type="string" name="PREC">high</i>
   <i name="ENMAX">    500.00000000</i>
   <i name="ENAUG">    644.87300000</i>
   <i name="EDIFF">      0.00001000</i>
   <i type="int" name="IALGO">    38</i>
   <i type="int" name="IWAVPR">    10</i>
   <i type="int" name="NBANDS">   240</i>
   <i name="NELECT">    348.00000000</i>
   <i type="int" name="TURBO">     0</i>
   <i type="int" name="IRESTART">     0</i>
   <i type="int" name="NREBOOT">     0</i>
   <i type="int" name="NMIN">     0</i>
   <i name="EREF">      0.00000000</i>
   <separator name="electronic smearing" >
    <i type="int" name="ISMEAR">     0</i>
    <i name="SIGMA">      0.01000000</i>
    <i name="KSPACING">      0.50000000</i>
    <i type="logical" name="KGAMMA"> T  </i>
   </separator>
   <separator name="electronic projectors" >
    <i type="logical" name="LREAL"> T  </i>
    <v name="ROPT">     -0.00040000     -0.00040000     -0.00040000</v>
    <i type="int" name="LMAXPAW">  -100</i>
    <i type="int" name="LMAXMIX">     2</i>
    <i type="logical" name="NLSPLINE"> F  </i>
   </separator>
   <separator name="electronic startup" >
    <i type="int" name="ISTART">     1</i>
    <i type="int" name="ICHARG">    11</i>
    <i type="int" name="INIWAV">     1</i>
   </separator>
   <separator name="electronic spin" >
    <i type="int" name="ISPIN">     1</i>
    <i type="logical" name="LNONCOLLINEAR"> F  </i>
    <v name="MAGMOM">      1.00000000      1.00000000      1.00000000      1.00000000      1.00000000      1.00000000      1.00000000      1.00000000      1.00000000      1.00000000      1.00000000      1.00000000      1.00000000      1.00000000      1.00000000      1.00000000      1.00000000      1.00000000      1.00000000      1.00000000
      1.00000000      1.00000000      1.00000000      1.00000000      1.00000000      1.00000000      1.00000000      1.00000000      1.00000000      1.00000000      1.00000000      1.00000000      1.00000000      1.00000000      1.00000000      1.00000000      1.00000000      1.00000000      1.00000000      1.00000000
      1.00000000      1.00000000      1.00000000      1.00000000      1.00000000      1.00000000      1.00000000      1.00000000      1.00000000      1.00000000      1.00000000      1.00000000      1.00000000      1.00000000      1.00000000      1.00000000      1.00000000      1.00000000      1.00000000      1.00000000
      1.00000000      1.00000000      1.00000000      1.00000000      1.00000000      1.00000000      1.00000000      1.00000000      1.00000000      1.00000000      1.00000000      1.00000000      1.00000000      1.00000000      1.00000000      1.00000000      1.00000000      1.00000000      1.00000000      1.00000000
      1.00000000      1.00000000      1.00000000      1.00000000      1.00000000      1.00000000      1.00000000      1.00000000      1.00000000      1.00000000      1.00000000      1.00000000      1.00000000      1.00000000      1.00000000      1.00000000      1.00000000      1.00000000      1.00000000      1.00000000
      1.00000000      1.00000000      1.00000000      1.00000000      1.00000000      1.00000000      1.00000000      1.00000000      1.00000000      1.00000000      1.00000000      1.00000000      1.00000000      1.00000000      1.00000000      1.00000000      1.00000000      1.00000000      1.00000000      1.00000000
</v>
    <i name="NUPDOWN">     -1.00000000</i>
    <i type="logical" name="LSORBIT"> F  </i>
    <v name="SAXIS">      0.00000000      0.00000000      1.00000000</v>
    <i type="logical" name="LSPIRAL"> F  </i>
    <v name="QSPIRAL">      0.00000000      0.00000000      0.00000000</v>
    <i type="logical" name="LZEROZ"> F  </i>
   </separator>
   <separator name="electronic exchange-correlation" >
    <i type="logical" name="LASPH"> F  </i>
    <i type="logical" name="LMETAGGA"> F  </i>
   </separator>
   <separator name="electronic convergence" >
    <i type="int" name="NELM">   200</i>
    <i type="int" name="NELMDL">     0</i>
    <i type="int" name="NELMIN">     2</i>
    <i name="ENINI">    500.00000000</i>
    <separator name="electronic convergence detail" >
     <i type="logical" name="LDIAG"> T  </i>
     <i type="logical" name="LSUBROT"> F  </i>
     <i name="WEIMIN">      0.00000000</i>
     <i name="EBREAK">      0.00000001</i>
     <i name="DEPER">      0.30000000</i>
     <i type="int" name="NRMM">     4</i>
     <i name="TIME">      0.40000000</i>
    </separator>
   </separator>
   <separator name="electronic mixer" >
    <i name="AMIX">      0.40000000</i>
    <i name="BMIX">      1.00000000</i>
    <i name="AMIN">      0.10000000</i>
    <i name="AMIX_MAG">      1.60000000</i>
    <i name="BMIX_MAG">      1.00000000</i>
    <separator name="electronic mixer details" >
     <i type="int" name="IMIX">     4</i>
     <i type="logical" name="MIXFIRST"> F  </i>
     <i type="int" name="MAXMIX">   -45</i>
     <i name="WC">    100.00000000</i>
     <i type="int" name="INIMIX">     1</i>
     <i type="int" name="MIXPRE">     1</i>
     <i type="int" name="MREMOVE">     5</i>
    </separator>
   </separator>
   <separator name="electronic dipolcorrection" >
    <i type="logical" name="LDIPOL"> F  </i>
    <i type="logical" name="LMONO"> F  </i>
    <i type="int" name="IDIPOL">     0</i>
    <i name="EPSILON">      1.00000000</i>
    <v name="DIPOL">   -100.00000000   -100.00000000   -100.00000000</v>
    <i name="EFIELD">      0.00000000</i>
   </separator>
  </separator>
  <separator name="grids" >
   <i type="int" name="NGX">   168</i>
   <i type="int" name="NGY">   168</i>
   <i type="int" name="NGZ">   150</i>
   <i type="int" name="NGXF">   250</i>
   <i type="int" name="NGYF">   250</i>
   <i type="int" name="NGZF">   224</i>
   <i type="logical" name="ADDGRID"> F  </i>
  </separator>
  <separator name="ionic" >
   <i type="int" name="NSW">     0</i>
   <i type="int" name="IBRION">    -1</i>
   <i type="int" name="MDALGO">     0</i>
   <i type="int" name="ISIF">     2</i>
   <i name="PSTRESS">      0.00000000</i>
   <i name="EDIFFG">     -0.01000000</i>
   <i type="int" name="NFREE">     0</i>
   <i name="POTIM">      0.30000000</i>
   <i name="SMASS">     -3.00000000</i>
   <i name="SCALEE">      1.00000000</i>
  </separator>
  <separator name="ionic md" >
   <i name="TEBEG">      0.00010000</i>
   <i name="TEEND">      0.00010000</i>
   <i type="int" name="NBLOCK">     1</i>
   <i type="int" name="KBLOCK">     1</i>
   <i type="int" name="NPACO">   256</i>
   <i name="APACO">     16.00000000</i>
  </separator>
  <separator name="symmetry" >
   <i type="int" name="ISYM">     2</i>
   <i name="SYMPREC">      0.00001000</i>
  </separator>
  <separator name="dos" >
   <i type="int" name="LORBIT">     0</i>
   <v name="RWIGS">     -1.00000000     -1.00000000     -1.00000000</v>
   <i type="int" name="NEDOS">   301</i>
   <i name="EMIN">     10.00000000</i>
   <i name="EMAX">    -10.00000000</i>
   <i name="EFERMI">      0.00000000</i>
  </separator>
  <separator name="writing" >
   <i type="int" name="NWRITE">     0</i>
   <i type="logical" name="LWAVE"> F  </i>
   <i type="logical" name="LDOWNSAMPLE"> F  </i>
   <i type="logical" name="LCHARG"> F  </i>
   <i type="logical" name="LPARD"> F  </i>
   <i type="logical" name="LVTOT"> F  </i>
   <i type="logical" name="LVHAR"> F  </i>
   <i type="logical" name="LELF"> F  </i>
   <i type="logical" name="LOPTICS"> F  </i>
   <v name="STM">      0.00000000      0.00000000      0.00000000      0.00000000      0.00000000      0.00000000      0.00000000</v>
  </separator>
  <separator name="performance" >
   <i type="int" name="NPAR">    16</i>
   <i type="int" name="NSIM">     4</i>
   <i type="int" name="NBLK">    -1</i>
   <i type="logical" name="LPLANE"> T  </i>
   <i type="logical" name="LSCALAPACK"> T  </i>
   <i type="logical" name="LSCAAWARE"> F  </i>
   <i type="logical" name="LSCALU"> F  </i>
   <i type="logical" name="LASYNC"> F  </i>
   <i type="logical" name="LORBITALREAL"> F  </i>
  </separator>
  <separator name="miscellaneous" >
   <i type="int" name="IDIOT">     3</i>
   <i type="int" name="ISPECIAL">     0</i>
   <i type="logical" name="LMUSIC"> F  </i>
   <v name="POMASS">     14.00100000      1.00000000     12.01100000</v>
   <v name="DARWINR">      0.00000000      0.00000000      0.00000000</v>
   <v name="DARWINV">      1.00000000      1.00000000      1.00000000</v>
   <i type="logical" name="LCORR"> T  </i>
  </separator>
  <i type="logical" name="GGA_COMPAT"> T  </i>
  <i type="logical" name="LBERRY"> F  </i>
  <i type="int" name="ICORELEVEL">     0</i>
  <i type="logical" name="LDAU"> F  </i>
  <i type="int" name="I_CONSTRAINED_M">     0</i>
  <separator name="electronic exchange-correlation" >
   <i type="string" name="GGA">PE</i>
   <i type="int" name="VOSKOWN">     0</i>
   <i type="logical" name="LHFCALC"> F  </i>
   <i type="string" name="PRECFOCK"></i>
   <i type="logical" name="LSYMGRAD"> F  </i>
   <i type="logical" name="LHFONE"> F  </i>
   <i type="logical" name="LRHFCALC"> F  </i>
   <i type="logical" name="LTHOMAS"> F  </i>
   <i type="logical" name="LMODELHF"> F  </i>
   <i name="ENCUT4O">     -1.00000000</i>
   <i type="int" name="EXXOEP">     0</i>
   <i type="int" name="FOURORBIT">     0</i>
   <i name="AEXX">      0.00000000</i>
   <i name="HFALPHA">      0.00000000</i>
   <i name="MCALPHA">      0.00000000</i>
   <i name="ALDAX">      1.00000000</i>
   <i name="AGGAX">      1.00000000</i>
   <i name="ALDAC">      1.00000000</i>
   <i name="AGGAC">      1.00000000</i>
   <i type="int" name="NKREDX">     1</i>
   <i type="int" name="NKREDY">     1</i>
   <i type="int" name="NKREDZ">     1</i>
   <i type="logical" name="SHIFTRED"> F  </i>
   <i type="logical" name="ODDONLY"> F  </i>
   <i type="logical" name="EVENONLY"> F  </i>
   <i type="int" name="LMAXFOCK">     0</i>
   <i type="int" name="NMAXFOCKAE">     0</i>
   <i type="logical" name="LFOCKAEDFT"> F  </i>
   <i name="HFSCREEN">      0.00000000</i>
   <i name="HFSCREENC">      0.00000000</i>
   <i type="int" name="NBANDSGWLOW">     0</i>
  </separator>
  <separator name="vdW DFT" >
   <i type="logical" name="LUSE_VDW"> F  </i>
   <i name="Zab_VDW">     -0.84910000</i>
   <i name="PARAM1">      0.12340000</i>
   <i name="PARAM2">      1.00000000</i>
   <i name="PARAM3">      0.00000000</i>
  </separator>
  <separator name="model GW" >
   <i type="int" name="MODEL_GW">     0</i>
   <i name="MODEL_EPS0">     43.90578233</i>
   <i name="MODEL_ALPHA">      1.00000000</i>
  </separator>
  <separator name="linear response parameters" >
   <i type="logical" name="LEPSILON"> F  </i>
   <i type="logical" name="LRPA"> F  </i>
   <i type="logical" name="LNABLA"> F  </i>
   <i type="logical" name="LVEL"> F  </i>
   <i type="int" name="KINTER">     0</i>
   <i name="CSHIFT">      0.10000000</i>
   <i name="OMEGAMAX">     -1.00000000</i>
   <i name="DEG_THRESHOLD">      0.00200000</i>
   <i name="RTIME">     -0.10000000</i>
   <i name="WPLASMAI">      0.00000000</i>
   <v name="DFIELD">      0.00000000      0.00000000      0.00000000</v>
   <v name="WPLASMA">      0.00000000      0.00000000      0.00000000      0.00000000      0.00000000      0.00000000      0.00000000      0.00000000      0.00000000</v>
  </separator>
  <separator name="orbital magnetization" >
   <i type="logical" name="NUCIND"> F  </i>
   <v name="MAGPOS">      0.00000000      0.00000000      0.00000000</v>
   <i type="logical" name="LNICSALL"> T  </i>
   <i type="logical" name="ORBITALMAG"> F  </i>
   <i type="logical" name="LMAGBLOCH"> F  </i>
   <i type="logical" name="LCHIMAG"> F  </i>
   <i type="logical" name="LGAUGE"> T  </i>
   <i type="int" name="MAGATOM">     0</i>
   <v name="MAGDIPOL">      0.00000000      0.00000000      0.00000000</v>
   <v name="AVECCONST">      0.00000000      0.00000000      0.00000000</v>
  </separator>
  <separator name="response functions" >
   <i type="logical" name="LADDER"> F  </i>
   <i type="logical" name="LRPAFORCE"> F  </i>
   <i type="logical" name="LFXC"> F  </i>
   <i type="logical" name="LHARTREE"> T  </i>
   <i type="int" name="IBSE">     0</i>
   <v type="int" name="KPOINT">    -1     0     0     0</v>
   <i type="logical" name="LTCTE"> F  </i>
   <i type="logical" name="LTETE"> F  </i>
   <i type="logical" name="LTRIPLET"> F  </i>
   <i type="logical" name="LFXCEPS"> F  </i>
   <i type="logical" name="LFXHEG"> F  </i>
   <i type="int" name="NATURALO">     2</i>
   <i type="logical" name="L2ORDER"> F  </i>
   <i type="logical" name="LMP2LT"> F  </i>
   <i type="logical" name="LUSEW"> F  </i>
   <i name="ENCUTGW">     -2.00000000</i>
   <i name="ENCUTGWSOFT">     -2.00000000</i>
   <i name="ENCUTLF">     -1.00000000</i>
   <i type="int" name="LMAXMP2">    -1</i>
   <i name="SCISSOR">      0.00000000</i>
   <i type="int" name="NOMEGA">     0</i>
   <i type="int" name="NOMEGAR">     0</i>
   <i type="int" name="NBANDSGW">    -1</i>
   <i type="int" name="NBANDSO">    -1</i>
   <i type="int" name="NBANDSV">    -1</i>
   <i type="int" name="NELM">   200</i>
   <i type="int" name="NELMHF">     1</i>
   <i type="int" name="DIM">     3</i>
   <i type="int" name="ANTIRES">     0</i>
   <i name="OMEGAMAX">    -30.00000000</i>
   <i name="OMEGAMIN">    -30.00000000</i>
   <i name="OMEGATL">   -200.00000000</i>
   <i type="int" name="OMEGAGRID">   140</i>
   <i name="CSHIFT">     -0.10000000</i>
   <i type="logical" name="SELFENERGY"> F  </i>
   <i type="logical" name="LSPECTRAL"> F  </i>
   <i type="logical" name="LSPECTRALGW"> F  </i>
   <i type="logical" name="LSINGLES"> F  </i>
   <i type="logical" name="LFERMIGW"> F  </i>
   <i type="logical" name="ODDONLYGW"> F  </i>
   <i type="logical" name="EVENONLYGW"> F  </i>
   <i type="int" name="NKREDLFX">     1</i>
   <i type="int" name="NKREDLFY">     1</i>
   <i type="int" name="NKREDLFZ">     1</i>
   <i type="int" name="MAXMEM">  2800</i>
   <i type="int" name="TELESCOPE">     0</i>
   <i type="int" name="TAUPAR">     1</i>
   <i type="int" name="OMEGAPAR">    -1</i>
   <i name="LAMBDA">      1.00000000</i>
  </separator>
  <separator name="External order field" >
   <i name="OFIELD_KAPPA">      0.00000000</i>
   <v name="OFIELD_K">      0.00000000      0.00000000      0.00000000</v>
   <i name="OFIELD_Q6_NEAR">      0.00000000</i>
   <i name="OFIELD_Q6_FAR">      0.00000000</i>
   <i name="OFIELD_A">      0.00000000</i>
  </separator>
  <separator name="solvation model" >
   <i type="logical" name="LSOL"> F  </i>
  </separator>
 </parameters>
 <atominfo>
  <atoms>     120 </atoms>
  <types>       3 </types>
  <array name="atoms" >
   <dimension dim="1">ion</dimension>
   <field type="string">element</field>
   <field type="int">atomtype</field>
   <set>
    <rc><c>N </c><c>   1</c></rc>
    <rc><c>N </c><c>   1</c></rc>
    <rc><c>N </c><c>   1</c></rc>
    <rc><c>N </c><c>   1</c></rc>
    <rc><c>N </c><c>   1</c></rc>
    <rc><c>N </c><c>   1</c></rc>
    <rc><c>N </c><c>   1</c></rc>
    <rc><c>N </c><c>   1</c></rc>
    <rc><c>N </c><c>   1</c></rc>
    <rc><c>N </c><c>   1</c></rc>
    <rc><c>N </c><c>   1</c></rc>
    <rc><c>N </c><c>   1</c></rc>
    <rc><c>H </c><c>   2</c></rc>
    <rc><c>H </c><c>   2</c></rc>
    <rc><c>H </c><c>   2</c></rc>
    <rc><c>H </c><c>   2</c></rc>
    <rc><c>H </c><c>   2</c></rc>
    <rc><c>H </c><c>   2</c></rc>
    <rc><c>H </c><c>   2</c></rc>
    <rc><c>H </c><c>   2</c></rc>
    <rc><c>H </c><c>   2</c></rc>
    <rc><c>H </c><c>   2</c></rc>
    <rc><c>H </c><c>   2</c></rc>
    <rc><c>H </c><c>   2</c></rc>
    <rc><c>H </c><c>   2</c></rc>
    <rc><c>H </c><c>   2</c></rc>
    <rc><c>H </c><c>   2</c></rc>
    <rc><c>H </c><c>   2</c></rc>
    <rc><c>H </c><c>   2</c></rc>
    <rc><c>H </c><c>   2</c></rc>
    <rc><c>H </c><c>   2</c></rc>
    <rc><c>H </c><c>   2</c></rc>
    <rc><c>H </c><c>   2</c></rc>
    <rc><c>H </c><c>   2</c></rc>
    <rc><c>H </c><c>   2</c></rc>
    <rc><c>H </c><c>   2</c></rc>
    <rc><c>H </c><c>   2</c></rc>
    <rc><c>H </c><c>   2</c></rc>
    <rc><c>H </c><c>   2</c></rc>
    <rc><c>H </c><c>   2</c></rc>
    <rc><c>H </c><c>   2</c></rc>
    <rc><c>H </c><c>   2</c></rc>
    <rc><c>H </c><c>   2</c></rc>
    <rc><c>H </c><c>   2</c></rc>
    <rc><c>H </c><c>   2</c></rc>
    <rc><c>H </c><c>   2</c></rc>
    <rc><c>H </c><c>   2</c></rc>
    <rc><c>H </c><c>   2</c></rc>
    <rc><c>H </c><c>   2</c></rc>
    <rc><c>H </c><c>   2</c></rc>
    <rc><c>H </c><c>   2</c></rc>
    <rc><c>H </c><c>   2</c></rc>
    <rc><c>H </c><c>   2</c></rc>
    <rc><c>H </c><c>   2</c></rc>
    <rc><c>H </c><c>   2</c></rc>
    <rc><c>H </c><c>   2</c></rc>
    <rc><c>H </c><c>   2</c></rc>
    <rc><c>H </c><c>   2</c></rc>
    <rc><c>H </c><c>   2</c></rc>
    <rc><c>H </c><c>   2</c></rc>
    <rc><c>C </c><c>   3</c></rc>
    <rc><c>C </c><c>   3</c></rc>
    <rc><c>C </c><c>   3</c></rc>
    <rc><c>C </c><c>   3</c></rc>
    <rc><c>C </c><c>   3</c></rc>
    <rc><c>C </c><c>   3</c></rc>
    <rc><c>C </c><c>   3</c></rc>
    <rc><c>C </c><c>   3</c></rc>
    <rc><c>C </c><c>   3</c></rc>
    <rc><c>C </c><c>   3</c></rc>
    <rc><c>C </c><c>   3</c></rc>
    <rc><c>C </c><c>   3</c></rc>
    <rc><c>C </c><c>   3</c></rc>
    <rc><c>C </c><c>   3</c></rc>
    <rc><c>C </c><c>   3</c></rc>
    <rc><c>C </c><c>   3</c></rc>
    <rc><c>C </c><c>   3</c></rc>
    <rc><c>C </c><c>   3</c></rc>
    <rc><c>C </c><c>   3</c></rc>
    <rc><c>C </c><c>   3</c></rc>
    <rc><c>C </c><c>   3</c></rc>
    <rc><c>C </c><c>   3</c></rc>
    <rc><c>C </c><c>   3</c></rc>
    <rc><c>C </c><c>   3</c></rc>
    <rc><c>C </c><c>   3</c></rc>
    <rc><c>C </c><c>   3</c></rc>
    <rc><c>C </c><c>   3</c></rc>
    <rc><c>C </c><c>   3</c></rc>
    <rc><c>C </c><c>   3</c></rc>
    <rc><c>C </c><c>   3</c></rc>
    <rc><c>C </c><c>   3</c></rc>
    <rc><c>C </c><c>   3</c></rc>
    <rc><c>C </c><c>   3</c></rc>
    <rc><c>C </c><c>   3</c></rc>
    <rc><c>C </c><c>   3</c></rc>
    <rc><c>C </c><c>   3</c></rc>
    <rc><c>C </c><c>   3</c></rc>
    <rc><c>C </c><c>   3</c></rc>
    <rc><c>C </c><c>   3</c></rc>
    <rc><c>C </c><c>   3</c></rc>
    <rc><c>C </c><c>   3</c></rc>
    <rc><c>C </c><c>   3</c></rc>
    <rc><c>C </c><c>   3</c></rc>
    <rc><c>C </c><c>   3</c></rc>
    <rc><c>C </c><c>   3</c></rc>
    <rc><c>C </c><c>   3</c></rc>
    <rc><c>C </c><c>   3</c></rc>
    <rc><c>C </c><c>   3</c></rc>
    <rc><c>C </c><c>   3</c></rc>
    <rc><c>C </c><c>   3</c></rc>
    <rc><c>C </c><c>   3</c></rc>
    <rc><c>C </c><c>   3</c></rc>
    <rc><c>C </c><c>   3</c></rc>
    <rc><c>C </c><c>   3</c></rc>
    <rc><c>C </c><c>   3</c></rc>
    <rc><c>C </c><c>   3</c></rc>
    <rc><c>C </c><c>   3</c></rc>
    <rc><c>C </c><c>   3</c></rc>
    <rc><c>C </c><c>   3</c></rc>
    <rc><c>C </c><c>   3</c></rc>
   </set>
  </array>
  <array name="atomtypes" >
   <dimension dim="1">type</dimension>
   <field type="int">atomspertype</field>
   <field type="string">element</field>
   <field>mass</field>
   <field>valence</field>
   <field type="string">pseudopotential</field>
   <set>
    <rc><c>  12</c><c>N </c><c>     14.00100000</c><c>      5.00000000</c><c>  PAW_PBE N 08Apr2002                   </c></rc>
    <rc><c>  48</c><c>H </c><c>      1.00000000</c><c>      1.00000000</c><c>  PAW_PBE H 15Jun2001                   </c></rc>
    <rc><c>  60</c><c>C </c><c>     12.01100000</c><c>      4.00000000</c><c>  PAW_PBE C 08Apr2002                   </c></rc>
   </set>
  </array>
 </atominfo>
 <structure name="initialpos" >
  <crystal>
   <varray name="basis" >
    <v>      22.51504242      -0.00681186       0.00000000 </v>
    <v>     -11.25300352      19.50404840       0.00000000 </v>
    <v>       0.00000000       0.00000000      20.00000000 </v>
   </varray>
   <i name="volume">   8781.15646566 </i>
   <varray name="rec_basis" >
    <v>       0.04442251       0.02562989       0.00000000 </v>
    <v>       0.00001551       0.05128036       0.00000000 </v>
    <v>       0.00000000       0.00000000       0.05000000 </v>
   </varray>
  </crystal>
  <varray name="positions" >
   <v>       0.89947099       0.09470887       0.42838048 </v>
   <v>       0.84538508       0.46406235       0.43288117 </v>
   <v>       0.59248763       0.14787047       0.43335085 </v>
   <v>       0.86130954       0.13076747       0.54728316 </v>
   <v>       0.84270403       0.39937944       0.55067518 </v>
   <v>       0.53031769       0.14998635       0.55128534 </v>
   <v>       0.89816341       0.82444764       0.42846825 </v>
   <v>       0.16915615       0.09357197       0.42909004 </v>
   <v>       0.52982759       0.40067420       0.43277475 </v>
   <v>       0.86307234       0.74992524       0.54712123 </v>
   <v>       0.24350474       0.13233540       0.54785497 </v>
   <v>       0.59396104       0.46313515       0.55067233 </v>
   <v>       0.05276100       0.13183582       0.48758175 </v>
   <v>       0.86152910       0.94038781       0.48661483 </v>
   <v>       0.89966270       0.28513791       0.48963152 </v>
   <v>       0.81884688       0.09912915       0.33031969 </v>
   <v>       0.82025341       0.17378253       0.36258632 </v>
   <v>       0.89670579       0.17802845       0.33154613 </v>
   <v>       0.81288069       0.33315406       0.35104760 </v>
   <v>       0.86931000       0.41988612       0.32645458 </v>
   <v>       0.90169775       0.37077345       0.36664738 </v>
   <v>       0.52455230       0.12470902       0.32690462 </v>
   <v>       0.96809872       0.10061152       0.62169851 </v>
   <v>       0.89284085       0.09745096       0.65511167 </v>
   <v>       0.88968216       0.02248826       0.62090597 </v>
   <v>       0.70813002       0.09330813       0.48865097 </v>
   <v>       0.70817246       0.28437130       0.49392377 </v>
   <v>       0.89462842       0.49116608       0.64857013 </v>
   <v>       0.57015570       0.09763500       0.64875205 </v>
   <v>       0.65335582       0.12410564       0.61476546 </v>
   <v>       0.63391159       0.18543466       0.64848529 </v>
   <v>       0.05296561       0.94059760       0.48803442 </v>
   <v>       0.70847995       0.63426465       0.48968794 </v>
   <v>       0.35915558       0.09369495       0.49093769 </v>
   <v>       0.89378164       0.73886718       0.33035925 </v>
   <v>       0.81832762       0.66634055       0.36227536 </v>
   <v>       0.81566130       0.73941162       0.33115301 </v>
   <v>       0.25415542       0.17398633       0.33076900 </v>
   <v>       0.32731633       0.17241860       0.36298750 </v>
   <v>       0.25487036       0.09598398       0.33222877 </v>
   <v>       0.66068025       0.49911797       0.35101293 </v>
   <v>       0.57399566       0.46901918       0.32638077 </v>
   <v>       0.62322055       0.55044025       0.36668222 </v>
   <v>       0.49453264       0.18124866       0.35195135 </v>
   <v>       0.44302191       0.09238716       0.36707954 </v>
   <v>       0.90016471       0.63429189       0.48796957 </v>
   <v>       0.70897034       0.44341395       0.49384384 </v>
   <v>       0.35943113       0.28545908       0.48824294 </v>
   <v>       0.55021657       0.28490089       0.49387410 </v>
   <v>       0.89356383       0.88684296       0.62199315 </v>
   <v>       0.89625793       0.81437858       0.65511287 </v>
   <v>       0.97145931       0.88607410       0.62112826 </v>
   <v>       0.10660016       0.02555811       0.62242046 </v>
   <v>       0.17885236       0.10074659       0.65576975 </v>
   <v>       0.10703759       0.10404859       0.62173283 </v>
   <v>       0.86855720       0.54816489       0.61449839 </v>
   <v>       0.80688221       0.46734036       0.64778028 </v>
   <v>       0.50236491       0.42373250       0.64828981 </v>
   <v>       0.44473850       0.34082803       0.61419021 </v>
   <v>       0.52518665       0.35907974       0.64776438 </v>
   <v>       0.95308841       0.04019007       0.48747685 </v>
   <v>       0.91751019       0.96845635       0.48744926 </v>
   <v>       0.02483984       0.07585429       0.48798152 </v>
   <v>       0.80763491       0.18553607       0.48909264 </v>
   <v>       0.84369156       0.25748800       0.48982555 </v>
   <v>       0.84892465       0.14637891       0.35943306 </v>
   <v>       0.86501538       0.12923378       0.42720940 </v>
   <v>       0.84594597       0.14731372       0.48769692 </v>
   <v>       0.83863327       0.36954417       0.49172429 </v>
   <v>       0.84928788       0.40660732       0.43142756 </v>
   <v>       0.85909459       0.38143452       0.36511863 </v>
   <v>       0.53119121       0.14410103       0.43199637 </v>
   <v>       0.91481093       0.07835508       0.48767694 </v>
   <v>       0.89564334       0.09637416       0.54836816 </v>
   <v>       0.91241013       0.07830852       0.61541364 </v>
   <v>       0.73568995       0.14926202       0.48965148 </v>
   <v>       0.80801815       0.29344596       0.49158745 </v>
   <v>       0.73626120       0.25647524       0.49250533 </v>
   <v>       0.69952242       0.18472818       0.49136023 </v>
   <v>       0.84721580       0.46108723       0.55231974 </v>
   <v>       0.61294815       0.13747343       0.61968419 </v>
   <v>       0.58760264       0.14561215       0.55280446 </v>
   <v>       0.62342372       0.15393245       0.49231107 </v>
   <v>       0.95318811       0.93240011       0.48769346 </v>
   <v>       0.02493636       0.96855989       0.48824880 </v>
   <v>       0.06103956       0.04030153       0.48809741 </v>
   <v>       0.80800677       0.64166442       0.48878399 </v>
   <v>       0.73605754       0.60587809       0.48978848 </v>
   <v>       0.35190479       0.18586800       0.48955684 </v>
   <v>       0.38764765       0.14965802       0.49072322 </v>
   <v>       0.84650418       0.72242881       0.35922780 </v>
   <v>       0.86382034       0.75547966       0.42708928 </v>
   <v>       0.84622926       0.71817578       0.48746957 </v>
   <v>       0.27123109       0.14388229       0.35996898 </v>
   <v>       0.23812971       0.12812952       0.42781296 </v>
   <v>       0.27536094       0.14756333       0.48824887 </v>
   <v>       0.62395966       0.48877303       0.49175784 </v>
   <v>       0.58713776       0.46213984       0.43136772 </v>
   <v>       0.61243487       0.49713870       0.36508119 </v>
   <v>       0.50468483       0.15443643       0.49239629 </v>
   <v>       0.49635993       0.13483428       0.36569493 </v>
   <v>       0.70003707       0.53426297       0.49162221 </v>
   <v>       0.73692562       0.49940201       0.49238108 </v>
   <v>       0.80866414       0.53431069       0.49096451 </v>
   <v>       0.84421311       0.60593526       0.48915673 </v>
   <v>       0.45928998       0.18516544       0.49225967 </v>
   <v>       0.49422344       0.25692710       0.49261381 </v>
   <v>       0.45938067       0.29382020       0.49112765 </v>
   <v>       0.38772784       0.25780800       0.48954619 </v>
   <v>       0.91500612       0.85597819       0.48783438 </v>
   <v>       0.89740064       0.81864005       0.54841327 </v>
   <v>       0.91560755       0.85324585       0.61556199 </v>
   <v>       0.13750392       0.07854280       0.48840117 </v>
   <v>       0.17477131       0.09792789       0.54903544 </v>
   <v>       0.14005287       0.08123720       0.61614061 </v>
   <v>       0.85504094       0.49434410       0.61927398 </v>
   <v>       0.83923304       0.48883164       0.49184903 </v>
   <v>       0.49871508       0.38070571       0.61909447 </v>
   <v>       0.53228219       0.40587392       0.55221577 </v>
   <v>       0.50486199       0.36989778       0.49177978 </v>
  </varray>
 </structure>
 <calculation>
  <scstep>
   <time name="dav">  173.29  174.77</time>
   <time name="total">  173.46  174.94</time>
   <energy>
    <i name="alphaZ">     63.71473326 </i>
    <i name="ewald">  41081.23702711 </i>
    <i name="hartreedc"> -51491.13003881 </i>
    <i name="XCdc">   1199.59428342 </i>
    <i name="pawpsdc">  31429.04907317 </i>
    <i name="pawaedc"> -31487.84218435 </i>
    <i name="eentropy">     -0.00000000 </i>
    <i name="bandstr">  -4210.65537822 </i>
    <i name="atom">  12602.67212801 </i>
    <i name="e_fr_energy">   -813.36035641 </i>
    <i name="e_wo_entrp">   -813.36035641 </i>
    <i name="e_0_energy">   -813.36035641 </i>
   </energy>
  </scstep>
  <scstep>
   <time name="dav">  195.54  197.20</time>
   <time name="total">  195.56  197.21</time>
   <energy>
    <i name="e_fr_energy">   -814.11366964 </i>
    <i name="e_wo_entrp">   -814.11366964 </i>
    <i name="e_0_energy">   -814.11366964 </i>
   </energy>
  </scstep>
  <scstep>
   <time name="dav">  211.42  213.24</time>
   <time name="total">  211.44  213.25</time>
   <energy>
    <i name="e_fr_energy">   -814.13234066 </i>
    <i name="e_wo_entrp">   -814.13234066 </i>
    <i name="e_0_energy">   -814.13234066 </i>
   </energy>
  </scstep>
  <scstep>
   <time name="dav">  195.90  197.59</time>
   <time name="total">  195.91  197.60</time>
   <energy>
    <i name="e_fr_energy">   -814.13281690 </i>
    <i name="e_wo_entrp">   -814.13281690 </i>
    <i name="e_0_energy">   -814.13281690 </i>
   </energy>
  </scstep>
  <scstep>
   <time name="dav">  183.16  184.75</time>
   <time name="total">  183.17  184.76</time>
   <energy>
    <i name="e_fr_energy">   -814.13283503 </i>
    <i name="e_wo_entrp">   -814.13283503 </i>
    <i name="e_0_energy">   -814.13283503 </i>
   </energy>
  </scstep>
  <scstep>
   <time name="dav">  154.73  156.07</time>
   <time name="total">  154.74  156.08</time>
   <energy>
    <i name="alphaZ">     63.71473326 </i>
    <i name="ewald">  41081.23702711 </i>
    <i name="hartreedc"> -51491.13003881 </i>
    <i name="XCdc">   1199.59428342 </i>
    <i name="pawpsdc">  31429.04907317 </i>
    <i name="pawaedc"> -31487.84218435 </i>
    <i name="eentropy">     -0.00000000 </i>
    <i name="bandstr">  -4211.42785768 </i>
    <i name="atom">  12602.67212801 </i>
    <i name="e_fr_energy">   -814.13283587 </i>
    <i name="e_wo_entrp">   -814.13283587 </i>
    <i name="e_0_energy">   -814.13283587 </i>
   </energy>
  </scstep>
  <structure>
   <crystal>
    <varray name="basis" >
     <v>      22.51504242      -0.00681186       0.00000000 </v>
     <v>     -11.25300352      19.50404840       0.00000000 </v>
     <v>       0.00000000       0.00000000      20.00000000 </v>
    </varray>
    <i name="volume">   8781.15646566 </i>
    <varray name="rec_basis" >
     <v>       0.04442251       0.02562989       0.00000000 </v>
     <v>       0.00001551       0.05128036       0.00000000 </v>
     <v>       0.00000000       0.00000000       0.05000000 </v>
    </varray>
   </crystal>
   <varray name="positions" >
    <v>       0.89947099       0.09470887       0.42838048 </v>
    <v>       0.84538508       0.46406235       0.43288117 </v>
    <v>       0.59248763       0.14787047       0.43335085 </v>
    <v>       0.86130954       0.13076747       0.54728316 </v>
    <v>       0.84270403       0.39937944       0.55067518 </v>
    <v>       0.53031769       0.14998635       0.55128534 </v>
    <v>       0.89816341       0.82444764       0.42846825 </v>
    <v>       0.16915615       0.09357197       0.42909004 </v>
    <v>       0.52982759       0.40067420       0.43277475 </v>
    <v>       0.86307234       0.74992524       0.54712123 </v>
    <v>       0.24350474       0.13233540       0.54785497 </v>
    <v>       0.59396104       0.46313515       0.55067233 </v>
    <v>       0.05276100       0.13183582       0.48758175 </v>
    <v>       0.86152910       0.94038781       0.48661483 </v>
    <v>       0.89966270       0.28513791       0.48963152 </v>
    <v>       0.81884688       0.09912915       0.33031969 </v>
    <v>       0.82025341       0.17378253       0.36258632 </v>
    <v>       0.89670579       0.17802845       0.33154613 </v>
    <v>       0.81288069       0.33315406       0.35104760 </v>
    <v>       0.86931000       0.41988612       0.32645458 </v>
    <v>       0.90169775       0.37077345       0.36664738 </v>
    <v>       0.52455230       0.12470902       0.32690462 </v>
    <v>       0.96809872       0.10061152       0.62169851 </v>
    <v>       0.89284085       0.09745096       0.65511167 </v>
    <v>       0.88968216       0.02248826       0.62090597 </v>
    <v>       0.70813002       0.09330813       0.48865097 </v>
    <v>       0.70817246       0.28437130       0.49392377 </v>
    <v>       0.89462842       0.49116608       0.64857013 </v>
    <v>       0.57015570       0.09763500       0.64875205 </v>
    <v>       0.65335582       0.12410564       0.61476546 </v>
    <v>       0.63391159       0.18543466       0.64848529 </v>
    <v>       0.05296561       0.94059760       0.48803442 </v>
    <v>       0.70847995       0.63426465       0.48968794 </v>
    <v>       0.35915558       0.09369495       0.49093769 </v>
    <v>       0.89378164       0.73886718       0.33035925 </v>
    <v>       0.81832762       0.66634055       0.36227536 </v>
    <v>       0.81566130       0.73941162       0.33115301 </v>
    <v>       0.25415542       0.17398633       0.33076900 </v>
    <v>       0.32731633       0.17241860       0.36298750 </v>
    <v>       0.25487036       0.09598398       0.33222877 </v>
    <v>       0.66068025       0.49911797       0.35101293 </v>
    <v>       0.57399566       0.46901918       0.32638077 </v>
    <v>       0.62322055       0.55044025       0.36668222 </v>
    <v>       0.49453264       0.18124866       0.35195135 </v>
    <v>       0.44302191       0.09238716       0.36707954 </v>
    <v>       0.90016471       0.63429189       0.48796957 </v>
    <v>       0.70897034       0.44341395       0.49384384 </v>
    <v>       0.35943113       0.28545908       0.48824294 </v>
    <v>       0.55021657       0.28490089       0.49387410 </v>
    <v>       0.89356383       0.88684296       0.62199315 </v>
    <v>       0.89625793       0.81437858       0.65511287 </v>
    <v>       0.97145931       0.88607410       0.62112826 </v>
    <v>       0.10660016       0.02555811       0.62242046 </v>
    <v>       0.17885236       0.10074659       0.65576975 </v>
    <v>       0.10703759       0.10404859       0.62173283 </v>
    <v>       0.86855720       0.54816489       0.61449839 </v>
    <v>       0.80688221       0.46734036       0.64778028 </v>
    <v>       0.50236491       0.42373250       0.64828981 </v>
    <v>       0.44473850       0.34082803       0.61419021 </v>
    <v>       0.52518665       0.35907974       0.64776438 </v>
    <v>       0.95308841       0.04019007       0.48747685 </v>
    <v>       0.91751019       0.96845635       0.48744926 </v>
    <v>       0.02483984       0.07585429       0.48798152 </v>
    <v>       0.80763491       0.18553607       0.48909264 </v>
    <v>       0.84369156       0.25748800       0.48982555 </v>
    <v>       0.84892465       0.14637891       0.35943306 </v>
    <v>       0.86501538       0.12923378       0.42720940 </v>
    <v>       0.84594597       0.14731372       0.48769692 </v>
    <v>       0.83863327       0.36954417       0.49172429 </v>
    <v>       0.84928788       0.40660732       0.43142756 </v>
    <v>       0.85909459       0.38143452       0.36511863 </v>
    <v>       0.53119121       0.14410103       0.43199637 </v>
    <v>       0.91481093       0.07835508       0.48767694 </v>
    <v>       0.89564334       0.09637416       0.54836816 </v>
    <v>       0.91241013       0.07830852       0.61541364 </v>
    <v>       0.73568995       0.14926202       0.48965148 </v>
    <v>       0.80801815       0.29344596       0.49158745 </v>
    <v>       0.73626120       0.25647524       0.49250533 </v>
    <v>       0.69952242       0.18472818       0.49136023 </v>
    <v>       0.84721580       0.46108723       0.55231974 </v>
    <v>       0.61294815       0.13747343       0.61968419 </v>
    <v>       0.58760264       0.14561215       0.55280446 </v>
    <v>       0.62342372       0.15393245       0.49231107 </v>
    <v>       0.95318811       0.93240011       0.48769346 </v>
    <v>       0.02493636       0.96855989       0.48824880 </v>
    <v>       0.06103956       0.04030153       0.48809741 </v>
    <v>       0.80800677       0.64166442       0.48878399 </v>
    <v>       0.73605754       0.60587809       0.48978848 </v>
    <v>       0.35190479       0.18586800       0.48955684 </v>
    <v>       0.38764765       0.14965802       0.49072322 </v>
    <v>       0.84650418       0.72242881       0.35922780 </v>
    <v>       0.86382034       0.75547966       0.42708928 </v>
    <v>       0.84622926       0.71817578       0.48746957 </v>
    <v>       0.27123109       0.14388229       0.35996898 </v>
    <v>       0.23812971       0.12812952       0.42781296 </v>
    <v>       0.27536094       0.14756333       0.48824887 </v>
    <v>       0.62395966       0.48877303       0.49175784 </v>
    <v>       0.58713776       0.46213984       0.43136772 </v>
    <v>       0.61243487       0.49713870       0.36508119 </v>
    <v>       0.50468483       0.15443643       0.49239629 </v>
    <v>       0.49635993       0.13483428       0.36569493 </v>
    <v>       0.70003707       0.53426297       0.49162221 </v>
    <v>       0.73692562       0.49940201       0.49238108 </v>
    <v>       0.80866414       0.53431069       0.49096451 </v>
    <v>       0.84421311       0.60593526       0.48915673 </v>
    <v>       0.45928998       0.18516544       0.49225967 </v>
    <v>       0.49422344       0.25692710       0.49261381 </v>
    <v>       0.45938067       0.29382020       0.49112765 </v>
    <v>       0.38772784       0.25780800       0.48954619 </v>
    <v>       0.91500612       0.85597819       0.48783438 </v>
    <v>       0.89740064       0.81864005       0.54841327 </v>
    <v>       0.91560755       0.85324585       0.61556199 </v>
    <v>       0.13750392       0.07854280       0.48840117 </v>
    <v>       0.17477131       0.09792789       0.54903544 </v>
    <v>       0.14005287       0.08123720       0.61614061 </v>
    <v>       0.85504094       0.49434410       0.61927398 </v>
    <v>       0.83923304       0.48883164       0.49184903 </v>
    <v>       0.49871508       0.38070571       0.61909447 </v>
    <v>       0.53228219       0.40587392       0.55221577 </v>
    <v>       0.50486199       0.36989778       0.49177978 </v>
   </varray>
  </structure>
  <varray name="forces" >
   <v>       0.00419245       0.00023049       0.00225701 </v>
   <v>       0.00083653       0.00130279      -0.00062708 </v>
   <v>      -0.00099612       0.00578097       0.00161061 </v>
   <v>       0.00376650       0.00286572      -0.00316243 </v>
   <v>      -0.00239333      -0.00658947       0.00320701 </v>
   <v>       0.00165598       0.00290607       0.00163105 </v>
   <v>       0.00090886      -0.00277876      -0.00071123 </v>
   <v>      -0.00137639       0.00046235      -0.00212473 </v>
   <v>       0.00251376       0.00256082      -0.00001660 </v>
   <v>       0.00350390      -0.00086780      -0.00335671 </v>
   <v>       0.00174540      -0.00172185      -0.00325040 </v>
   <v>       0.00119331       0.00198252      -0.00212804 </v>
   <v>       0.00190132       0.00263214      -0.00135321 </v>
   <v>      -0.00386729       0.00246279      -0.00139282 </v>
   <v>      -0.00070553      -0.00038296      -0.00125500 </v>
   <v>      -0.00107859       0.00385559       0.00158794 </v>
   <v>      -0.00186665      -0.00068168      -0.00122795 </v>
   <v>      -0.00288576      -0.00063584       0.00159592 </v>
   <v>       0.00305237      -0.00055100      -0.00138399 </v>
   <v>       0.00070913      -0.00066879       0.00332045 </v>
   <v>      -0.00210779       0.00453908       0.00256192 </v>
   <v>      -0.00169936      -0.00162410       0.00461127 </v>
   <v>       0.00322956       0.00000518       0.00039214 </v>
   <v>      -0.00364940       0.00190460       0.00128945 </v>
   <v>       0.00047146      -0.00196024      -0.00123779 </v>
   <v>       0.00313687       0.00288767       0.00055753 </v>
   <v>      -0.00211441       0.00177013       0.00080038 </v>
   <v>       0.00036976      -0.00304760      -0.00021054 </v>
   <v>      -0.00210436       0.00104412       0.00081769 </v>
   <v>      -0.00059990      -0.00019548       0.00216196 </v>
   <v>      -0.00058224       0.00413020       0.00133384 </v>
   <v>      -0.00148434       0.00130449      -0.00202515 </v>
   <v>      -0.00009991       0.00044912       0.00088272 </v>
   <v>       0.00329261       0.00353630       0.00026620 </v>
   <v>      -0.00156119      -0.00144757       0.00171973 </v>
   <v>      -0.00335453      -0.00220172      -0.00171856 </v>
   <v>       0.00031008      -0.00212584       0.00343519 </v>
   <v>       0.00130652       0.00031105       0.00200869 </v>
   <v>       0.00495837       0.00127356      -0.00054799 </v>
   <v>       0.00047969       0.00137382       0.00076526 </v>
   <v>      -0.00099996       0.00014022       0.00054600 </v>
   <v>      -0.00058644      -0.00286643      -0.00058225 </v>
   <v>      -0.00198169      -0.00635908       0.00038396 </v>
   <v>      -0.00006830      -0.00393786      -0.00035522 </v>
   <v>       0.00168551      -0.00262431      -0.00244675 </v>
   <v>      -0.00071408       0.00131723      -0.00039392 </v>
   <v>      -0.00314881       0.00307217       0.00103112 </v>
   <v>      -0.00165099      -0.00119055      -0.00023927 </v>
   <v>       0.00271858       0.00138658       0.00006016 </v>
   <v>      -0.00005975       0.00185202       0.00072943 </v>
   <v>      -0.00012967      -0.00266246       0.00281533 </v>
   <v>       0.00257320       0.00107611      -0.00066768 </v>
   <v>      -0.00176734       0.00067443       0.00024229 </v>
   <v>       0.00065786       0.00139797      -0.00079127 </v>
   <v>      -0.00003982      -0.00017506      -0.00103191 </v>
   <v>       0.00027190       0.00403916      -0.00037187 </v>
   <v>      -0.00286795      -0.00297140       0.00167870 </v>
   <v>       0.00061896      -0.00143478      -0.00068087 </v>
   <v>      -0.00332234      -0.00216480       0.00011401 </v>
   <v>       0.00233122      -0.00131245       0.00132652 </v>
   <v>      -0.00512229       0.00573386       0.00191367 </v>
   <v>       0.00372516       0.00054574      -0.00064825 </v>
   <v>       0.00209161      -0.00141276      -0.00013614 </v>
   <v>       0.00025458       0.00005734      -0.00176877 </v>
   <v>       0.00523306       0.00145417       0.00056555 </v>
   <v>       0.00241962       0.00021148      -0.00480419 </v>
   <v>      -0.00102496       0.00166426       0.00274910 </v>
   <v>      -0.00109881       0.00048609       0.00350313 </v>
   <v>      -0.00060662      -0.00206191       0.00369787 </v>
   <v>      -0.00326779       0.00107860       0.00216197 </v>
   <v>       0.00186907      -0.00033908      -0.00229808 </v>
   <v>       0.00047400      -0.00064230       0.00216671 </v>
   <v>      -0.00423047       0.00532382       0.00265234 </v>
   <v>      -0.00136132       0.00152584      -0.00528967 </v>
   <v>      -0.00203253       0.00087953      -0.00244893 </v>
   <v>       0.00150530      -0.00048289      -0.00144495 </v>
   <v>       0.00305792       0.00240286      -0.00036923 </v>
   <v>      -0.00098688      -0.00488212       0.00211303 </v>
   <v>       0.00032232      -0.00264899      -0.00155254 </v>
   <v>       0.00042727       0.00023014       0.00116937 </v>
   <v>       0.00262274      -0.00076047      -0.00572446 </v>
   <v>       0.00336442      -0.00355617      -0.00491746 </v>
   <v>       0.00139452       0.00070656       0.00511521 </v>
   <v>       0.00316361      -0.00313336       0.00162773 </v>
   <v>       0.00015185       0.00030696      -0.00140321 </v>
   <v>       0.00443243       0.00191902       0.00003435 </v>
   <v>       0.00226813       0.00092085      -0.00131107 </v>
   <v>      -0.00398667      -0.00215769      -0.00216968 </v>
   <v>       0.00205073      -0.00212245      -0.00288627 </v>
   <v>       0.00265712      -0.00276792      -0.00033645 </v>
   <v>      -0.00253035       0.00057337      -0.00162583 </v>
   <v>      -0.00157351       0.00005140       0.00099263 </v>
   <v>      -0.00198250       0.00345894       0.00554629 </v>
   <v>      -0.00219071      -0.00228551      -0.00127104 </v>
   <v>       0.00220498      -0.00159743      -0.00047965 </v>
   <v>       0.00234010       0.00238822       0.00308546 </v>
   <v>      -0.00133256      -0.00260250      -0.00223268 </v>
   <v>      -0.00097289      -0.00010833       0.00436937 </v>
   <v>       0.00204475       0.00461428       0.00014390 </v>
   <v>      -0.00308538       0.00081130       0.00144724 </v>
   <v>      -0.00057938      -0.00735291      -0.00544663 </v>
   <v>      -0.00384273      -0.00066546      -0.00043697 </v>
   <v>       0.00192972      -0.00129847       0.00104935 </v>
   <v>      -0.00680203      -0.00244353       0.00173605 </v>
   <v>      -0.00048791       0.00128514      -0.00165387 </v>
   <v>      -0.00132624      -0.00430597      -0.00187504 </v>
   <v>      -0.00074608       0.00070667       0.00443312 </v>
   <v>       0.00082636       0.00375867      -0.00162690 </v>
   <v>       0.00121240      -0.00341675       0.00102441 </v>
   <v>      -0.00366270      -0.00496738      -0.00180903 </v>
   <v>       0.00041374      -0.00067763      -0.00579821 </v>
   <v>       0.00111268       0.00145265      -0.00401103 </v>
   <v>       0.00034029      -0.00162121       0.00558252 </v>
   <v>      -0.00187622       0.00244034      -0.00169245 </v>
   <v>      -0.00088706      -0.00010150      -0.00361317 </v>
   <v>       0.00145070      -0.00170740      -0.00274186 </v>
   <v>      -0.00091221       0.00303185       0.00211110 </v>
   <v>       0.00192312       0.00446578      -0.00314189 </v>
   <v>      -0.00136687      -0.00022218       0.00155667 </v>
   <v>      -0.00193608      -0.00349103       0.00396720 </v>
  </varray>
  <varray name="stress" >
   <v>      -0.00419749      -0.00315382       0.00344842 </v>
   <v>      -0.00315382      -0.00755380       0.00365613 </v>
   <v>       0.00344842       0.00365614      -0.28719785 </v>
  </varray>
  <energy>
   <i name="e_fr_energy">   -816.83754132 </i>
   <i name="e_wo_entrp">   -816.83754132 </i>
   <i name="e_0_energy">     -0.00000000 </i>
  </energy>
  <time name="totalsc"> 1266.94 1278.22</time>
  <eigenvalues>
   <array>
    <dimension dim="1">band</dimension>
    <dimension dim="2">kpoint</dimension>
    <dimension dim="3">spin</dimension>
    <field>eigene</field>
    <field>occ</field>
    <set>
     <set comment="spin 1">
      <set comment="kpoint 1">
       <r>  -23.9655    1.0000 </r>
       <r>  -23.9510    1.0000 </r>
       <r>  -23.9501    1.0000 </r>
       <r>  -23.9497    1.0000 </r>
       <r>  -23.9426    1.0000 </r>
       <r>  -23.9412    1.0000 </r>
       <r>  -22.1134    1.0000 </r>
       <r>  -22.0878    1.0000 </r>
       <r>  -22.0869    1.0000 </r>
       <r>  -22.0341    1.0000 </r>
       <r>  -22.0334    1.0000 </r>
       <r>  -22.0018    1.0000 </r>
       <r>  -21.1765    1.0000 </r>
       <r>  -21.1531    1.0000 </r>
       <r>  -21.1510    1.0000 </r>
       <r>  -21.0590    1.0000 </r>
       <r>  -20.0154    1.0000 </r>
       <r>  -20.0141    1.0000 </r>
       <r>  -19.9523    1.0000 </r>
       <r>  -19.5375    1.0000 </r>
       <r>  -19.5111    1.0000 </r>
       <r>  -19.5106    1.0000 </r>
       <r>  -18.7181    1.0000 </r>
       <r>  -18.7178    1.0000 </r>
       <r>  -18.2867    1.0000 </r>
       <r>  -18.2482    1.0000 </r>
       <r>  -18.2480    1.0000 </r>
       <r>  -17.9194    1.0000 </r>
       <r>  -17.9128    1.0000 </r>
       <r>  -17.9122    1.0000 </r>
       <r>  -17.8646    1.0000 </r>
       <r>  -17.8638    1.0000 </r>
       <r>  -17.8584    1.0000 </r>
       <r>  -17.7732    1.0000 </r>
       <r>  -17.7390    1.0000 </r>
       <r>  -17.7377    1.0000 </r>
       <r>  -16.1714    1.0000 </r>
       <r>  -16.1709    1.0000 </r>
       <r>  -16.1688    1.0000 </r>
       <r>  -16.1642    1.0000 </r>
       <r>  -16.1024    1.0000 </r>
       <r>  -16.1021    1.0000 </r>
       <r>  -15.9573    1.0000 </r>
       <r>  -15.9559    1.0000 </r>
       <r>  -15.9494    1.0000 </r>
       <r>  -15.8675    1.0000 </r>
       <r>  -15.8663    1.0000 </r>
       <r>  -15.7117    1.0000 </r>
       <r>  -14.6163    1.0000 </r>
       <r>  -14.6142    1.0000 </r>
       <r>  -14.5971    1.0000 </r>
       <r>  -14.5285    1.0000 </r>
       <r>  -14.5269    1.0000 </r>
       <r>  -14.4789    1.0000 </r>
       <r>  -14.3642    1.0000 </r>
       <r>  -14.3383    1.0000 </r>
       <r>  -14.3371    1.0000 </r>
       <r>  -13.8345    1.0000 </r>
       <r>  -13.8276    1.0000 </r>
       <r>  -13.8271    1.0000 </r>
       <r>  -13.5660    1.0000 </r>
       <r>  -13.5649    1.0000 </r>
       <r>  -12.6741    1.0000 </r>
       <r>  -12.6264    1.0000 </r>
       <r>  -12.6254    1.0000 </r>
       <r>  -12.5570    1.0000 </r>
       <r>  -12.5558    1.0000 </r>
       <r>  -12.5531    1.0000 </r>
       <r>  -12.3473    1.0000 </r>
       <r>  -12.3271    1.0000 </r>
       <r>  -12.3262    1.0000 </r>
       <r>  -12.3196    1.0000 </r>
       <r>  -11.4257    1.0000 </r>
       <r>  -11.4090    1.0000 </r>
       <r>  -11.4030    1.0000 </r>
       <r>  -11.4009    1.0000 </r>
       <r>  -11.2961    1.0000 </r>
       <r>  -11.2725    1.0000 </r>
       <r>  -11.2720    1.0000 </r>
       <r>  -11.1810    1.0000 </r>
       <r>  -10.9453    1.0000 </r>
       <r>  -10.9440    1.0000 </r>
       <r>  -10.6682    1.0000 </r>
       <r>  -10.6436    1.0000 </r>
       <r>  -10.6427    1.0000 </r>
       <r>  -10.4602    1.0000 </r>
       <r>  -10.4586    1.0000 </r>
       <r>  -10.3448    1.0000 </r>
       <r>  -10.2559    1.0000 </r>
       <r>  -10.1752    1.0000 </r>
       <r>  -10.1732    1.0000 </r>
       <r>  -10.0971    1.0000 </r>
       <r>  -10.0911    1.0000 </r>
       <r>  -10.0901    1.0000 </r>
       <r>   -9.7566    1.0000 </r>
       <r>   -9.7559    1.0000 </r>
       <r>   -9.7143    1.0000 </r>
       <r>   -9.6998    1.0000 </r>
       <r>   -9.6885    1.0000 </r>
       <r>   -9.6882    1.0000 </r>
       <r>   -9.5268    1.0000 </r>
       <r>   -9.5115    1.0000 </r>
       <r>   -9.5103    1.0000 </r>
       <r>   -9.4590    1.0000 </r>
       <r>   -9.4421    1.0000 </r>
       <r>   -9.4413    1.0000 </r>
       <r>   -9.2637    1.0000 </r>
       <r>   -9.2621    1.0000 </r>
       <r>   -9.2616    1.0000 </r>
       <r>   -9.2376    1.0000 </r>
       <r>   -9.2288    1.0000 </r>
       <r>   -9.2283    1.0000 </r>
       <r>   -9.0931    1.0000 </r>
       <r>   -9.0924    1.0000 </r>
       <r>   -9.0864    1.0000 </r>
       <r>   -8.9806    1.0000 </r>
       <r>   -8.9798    1.0000 </r>
       <r>   -8.9336    1.0000 </r>
       <r>   -8.9130    1.0000 </r>
       <r>   -8.9013    1.0000 </r>
       <r>   -8.9005    1.0000 </r>
       <r>   -8.8592    1.0000 </r>
       <r>   -8.8572    1.0000 </r>
       <r>   -8.8518    1.0000 </r>
       <r>   -8.7472    1.0000 </r>
       <r>   -8.7454    1.0000 </r>
       <r>   -8.6557    1.0000 </r>
       <r>   -8.6308    1.0000 </r>
       <r>   -8.6198    1.0000 </r>
       <r>   -8.6182    1.0000 </r>
       <r>   -8.5741    1.0000 </r>
       <r>   -8.4242    1.0000 </r>
       <r>   -8.4231    1.0000 </r>
       <r>   -8.3985    1.0000 </r>
       <r>   -8.1492    1.0000 </r>
       <r>   -8.1481    1.0000 </r>
       <r>   -8.1310    1.0000 </r>
       <r>   -8.0118    1.0000 </r>
       <r>   -8.0107    1.0000 </r>
       <r>   -7.8492    1.0000 </r>
       <r>   -7.8400    1.0000 </r>
       <r>   -7.8388    1.0000 </r>
       <r>   -7.3201    1.0000 </r>
       <r>   -7.3189    1.0000 </r>
       <r>   -7.2837    1.0000 </r>
       <r>   -7.1773    1.0000 </r>
       <r>   -7.1766    1.0000 </r>
       <r>   -7.1598    1.0000 </r>
       <r>   -6.5800    1.0000 </r>
       <r>   -6.5790    1.0000 </r>
       <r>   -6.5131    1.0000 </r>
       <r>   -6.5130    1.0000 </r>
       <r>   -6.4996    1.0000 </r>
       <r>   -6.3062    1.0000 </r>
       <r>   -6.0349    1.0000 </r>
       <r>   -5.9723    1.0000 </r>
       <r>   -5.9709    1.0000 </r>
       <r>   -5.8190    1.0000 </r>
       <r>   -5.8135    1.0000 </r>
       <r>   -5.7581    1.0000 </r>
       <r>   -5.7538    1.0000 </r>
       <r>   -5.7280    1.0000 </r>
       <r>   -5.6847    1.0000 </r>
       <r>   -5.6829    1.0000 </r>
       <r>   -5.6610    1.0000 </r>
       <r>   -5.5205    1.0000 </r>
       <r>   -5.5185    1.0000 </r>
       <r>   -5.3707    1.0000 </r>
       <r>   -5.1820    1.0000 </r>
       <r>   -5.0758    1.0000 </r>
       <r>   -5.0618    1.0000 </r>
       <r>   -5.0605    1.0000 </r>
       <r>   -4.9834    1.0000 </r>
       <r>   -4.9826    1.0000 </r>
       <r>   -1.8970    0.0000 </r>
       <r>   -1.8475    0.0000 </r>
       <r>   -1.8455    0.0000 </r>
       <r>   -1.6845    0.0000 </r>
       <r>   -1.6112    0.0000 </r>
       <r>   -1.6097    0.0000 </r>
       <r>   -1.2588    0.0000 </r>
       <r>   -1.1039    0.0000 </r>
       <r>   -1.1021    0.0000 </r>
       <r>   -1.0348    0.0000 </r>
       <r>   -1.0316    0.0000 </r>
       <r>   -0.9813    0.0000 </r>
       <r>   -0.9761    0.0000 </r>
       <r>   -0.9694    0.0000 </r>
       <r>   -0.8768    0.0000 </r>
       <r>   -0.8610    0.0000 </r>
       <r>   -0.8555    0.0000 </r>
       <r>   -0.6693    0.0000 </r>
       <r>   -0.6623    0.0000 </r>
       <r>   -0.5892    0.0000 </r>
       <r>   -0.2197    0.0000 </r>
       <r>   -0.0147    0.0000 </r>
       <r>    0.1463    0.0000 </r>
       <r>    0.1469    0.0000 </r>
       <r>    0.1950    0.0000 </r>
       <r>    0.3150    0.0000 </r>
       <r>    0.3164    0.0000 </r>
       <r>    0.4175    0.0000 </r>
       <r>    0.5418    0.0000 </r>
       <r>    0.5424    0.0000 </r>
       <r>    0.5477    0.0000 </r>
       <r>    0.7020    0.0000 </r>
       <r>    0.7394    0.0000 </r>
       <r>    0.7402    0.0000 </r>
       <r>    0.8192    0.0000 </r>
       <r>    0.8610    0.0000 </r>
       <r>    0.8751    0.0000 </r>
       <r>    0.8762    0.0000 </r>
       <r>    1.0020    0.0000 </r>
       <r>    1.0493    0.0000 </r>
       <r>    1.0499    0.0000 </r>
       <r>    1.0878    0.0000 </r>
       <r>    1.1130    0.0000 </r>
       <r>    1.1143    0.0000 </r>
       <r>    1.1905    0.0000 </r>
       <r>    1.1920    0.0000 </r>
       <r>    1.2447    0.0000 </r>
       <r>    1.2906    0.0000 </r>
       <r>    1.2920    0.0000 </r>
       <r>    1.3155    0.0000 </r>
       <r>    1.3890    0.0000 </r>
       <r>    1.4182    0.0000 </r>
       <r>    1.4198    0.0000 </r>
       <r>    1.4317    0.0000 </r>
       <r>    1.4551    0.0000 </r>
       <r>    1.4761    0.0000 </r>
       <r>    1.4767    0.0000 </r>
       <r>    1.4824    0.0000 </r>
       <r>    1.5815    0.0000 </r>
       <r>    1.5832    0.0000 </r>
       <r>    1.5880    0.0000 </r>
       <r>    1.6113    0.0000 </r>
       <r>    1.6956    0.0000 </r>
       <r>    1.6972    0.0000 </r>
       <r>    1.7329    0.0000 </r>
       <r>    1.7550    0.0000 </r>
      </set>
      <set comment="kpoint 2">
       <r>  -23.9655    1.0000 </r>
       <r>  -23.9511    1.0000 </r>
       <r>  -23.9500    1.0000 </r>
       <r>  -23.9497    1.0000 </r>
       <r>  -23.9426    1.0000 </r>
       <r>  -23.9412    1.0000 </r>
       <r>  -22.1135    1.0000 </r>
       <r>  -22.0878    1.0000 </r>
       <r>  -22.0868    1.0000 </r>
       <r>  -22.0341    1.0000 </r>
       <r>  -22.0335    1.0000 </r>
       <r>  -22.0018    1.0000 </r>
       <r>  -21.1767    1.0000 </r>
       <r>  -21.1530    1.0000 </r>
       <r>  -21.1509    1.0000 </r>
       <r>  -21.0591    1.0000 </r>
       <r>  -20.0153    1.0000 </r>
       <r>  -20.0138    1.0000 </r>
       <r>  -19.9523    1.0000 </r>
       <r>  -19.5464    1.0000 </r>
       <r>  -19.5111    1.0000 </r>
       <r>  -19.5018    1.0000 </r>
       <r>  -18.7182    1.0000 </r>
       <r>  -18.7177    1.0000 </r>
       <r>  -18.2941    1.0000 </r>
       <r>  -18.2480    1.0000 </r>
       <r>  -18.2407    1.0000 </r>
       <r>  -17.9194    1.0000 </r>
       <r>  -17.9128    1.0000 </r>
       <r>  -17.9122    1.0000 </r>
       <r>  -17.8646    1.0000 </r>
       <r>  -17.8638    1.0000 </r>
       <r>  -17.8584    1.0000 </r>
       <r>  -17.7732    1.0000 </r>
       <r>  -17.7394    1.0000 </r>
       <r>  -17.7377    1.0000 </r>
       <r>  -16.1715    1.0000 </r>
       <r>  -16.1709    1.0000 </r>
       <r>  -16.1688    1.0000 </r>
       <r>  -16.1640    1.0000 </r>
       <r>  -16.1024    1.0000 </r>
       <r>  -16.1021    1.0000 </r>
       <r>  -15.9574    1.0000 </r>
       <r>  -15.9559    1.0000 </r>
       <r>  -15.9493    1.0000 </r>
       <r>  -15.8675    1.0000 </r>
       <r>  -15.8663    1.0000 </r>
       <r>  -15.7117    1.0000 </r>
       <r>  -14.6163    1.0000 </r>
       <r>  -14.6142    1.0000 </r>
       <r>  -14.5971    1.0000 </r>
       <r>  -14.5285    1.0000 </r>
       <r>  -14.5269    1.0000 </r>
       <r>  -14.4791    1.0000 </r>
       <r>  -14.3642    1.0000 </r>
       <r>  -14.3377    1.0000 </r>
       <r>  -14.3371    1.0000 </r>
       <r>  -13.8449    1.0000 </r>
       <r>  -13.8274    1.0000 </r>
       <r>  -13.8172    1.0000 </r>
       <r>  -13.5660    1.0000 </r>
       <r>  -13.5649    1.0000 </r>
       <r>  -12.6742    1.0000 </r>
       <r>  -12.6264    1.0000 </r>
       <r>  -12.6254    1.0000 </r>
       <r>  -12.5570    1.0000 </r>
       <r>  -12.5559    1.0000 </r>
       <r>  -12.5531    1.0000 </r>
       <r>  -12.3473    1.0000 </r>
       <r>  -12.3271    1.0000 </r>
       <r>  -12.3262    1.0000 </r>
       <r>  -12.3196    1.0000 </r>
       <r>  -11.4267    1.0000 </r>
       <r>  -11.4090    1.0000 </r>
       <r>  -11.4026    1.0000 </r>
       <r>  -11.4001    1.0000 </r>
       <r>  -11.2973    1.0000 </r>
       <r>  -11.2722    1.0000 </r>
       <r>  -11.2711    1.0000 </r>
       <r>  -11.1812    1.0000 </r>
       <r>  -10.9454    1.0000 </r>
       <r>  -10.9439    1.0000 </r>
       <r>  -10.6719    1.0000 </r>
       <r>  -10.6434    1.0000 </r>
       <r>  -10.6394    1.0000 </r>
       <r>  -10.4597    1.0000 </r>
       <r>  -10.4585    1.0000 </r>
       <r>  -10.3448    1.0000 </r>
       <r>  -10.2559    1.0000 </r>
       <r>  -10.1755    1.0000 </r>
       <r>  -10.1735    1.0000 </r>
       <r>  -10.1002    1.0000 </r>
       <r>  -10.0909    1.0000 </r>
       <r>  -10.0870    1.0000 </r>
       <r>   -9.7566    1.0000 </r>
       <r>   -9.7559    1.0000 </r>
       <r>   -9.7143    1.0000 </r>
       <r>   -9.6998    1.0000 </r>
       <r>   -9.6885    1.0000 </r>
       <r>   -9.6882    1.0000 </r>
       <r>   -9.5269    1.0000 </r>
       <r>   -9.5115    1.0000 </r>
       <r>   -9.5101    1.0000 </r>
       <r>   -9.4590    1.0000 </r>
       <r>   -9.4422    1.0000 </r>
       <r>   -9.4413    1.0000 </r>
       <r>   -9.2639    1.0000 </r>
       <r>   -9.2621    1.0000 </r>
       <r>   -9.2614    1.0000 </r>
       <r>   -9.2377    1.0000 </r>
       <r>   -9.2287    1.0000 </r>
       <r>   -9.2283    1.0000 </r>
       <r>   -9.0936    1.0000 </r>
       <r>   -9.0925    1.0000 </r>
       <r>   -9.0857    1.0000 </r>
       <r>   -8.9806    1.0000 </r>
       <r>   -8.9799    1.0000 </r>
       <r>   -8.9335    1.0000 </r>
       <r>   -8.9130    1.0000 </r>
       <r>   -8.9013    1.0000 </r>
       <r>   -8.9005    1.0000 </r>
       <r>   -8.8592    1.0000 </r>
       <r>   -8.8572    1.0000 </r>
       <r>   -8.8518    1.0000 </r>
       <r>   -8.7472    1.0000 </r>
       <r>   -8.7454    1.0000 </r>
       <r>   -8.6557    1.0000 </r>
       <r>   -8.6312    1.0000 </r>
       <r>   -8.6193    1.0000 </r>
       <r>   -8.6182    1.0000 </r>
       <r>   -8.5739    1.0000 </r>
       <r>   -8.4242    1.0000 </r>
       <r>   -8.4239    1.0000 </r>
       <r>   -8.3980    1.0000 </r>
       <r>   -8.1498    1.0000 </r>
       <r>   -8.1482    1.0000 </r>
[...]
       <r>   -19.3978     3.1028    42.4931 </r>
       <r>   -19.3033     4.8724    43.0269 </r>
       <r>   -19.2089     5.9768    44.0000 </r>
       <r>   -19.1145     0.0000    44.0000 </r>
       <r>   -19.0200     0.0000    44.0000 </r>
       <r>   -18.9256     0.0000    44.0000 </r>
       <r>   -18.8311     0.0000    44.0000 </r>
       <r>   -18.7367     9.3336    44.8815 </r>
       <r>   -18.6422    25.6488    48.0000 </r>
       <r>   -18.5478     0.0000    48.0000 </r>
       <r>   -18.4533    12.7964    49.2086 </r>
       <r>   -18.3589     3.7158    49.6511 </r>
       <r>   -18.2644     3.4110    50.0224 </r>
       <r>   -18.1700    24.6536    52.3509 </r>
       <r>   -18.0756     2.9607    52.6799 </r>
       <r>   -17.9811     5.3201    53.2359 </r>
       <r>   -17.8867    71.6445    60.2673 </r>
       <r>   -17.7922    65.9598    67.2007 </r>
       <r>   -17.6978    49.3353    72.0000 </r>
       <r>   -17.6033     0.0000    72.0000 </r>
       <r>   -17.5089     0.0000    72.0000 </r>
       <r>   -17.4144     0.0000    72.0000 </r>
       <r>   -17.3200     0.0000    72.0000 </r>
       <r>   -17.2255     0.0000    72.0000 </r>
       <r>   -17.1311     0.0000    72.0000 </r>
       <r>   -17.0367     0.0000    72.0000 </r>
       <r>   -16.9422     0.0000    72.0000 </r>
       <r>   -16.8478     0.0000    72.0000 </r>
       <r>   -16.7533     0.0000    72.0000 </r>
       <r>   -16.6589     0.0000    72.0000 </r>
       <r>   -16.5644     0.0000    72.0000 </r>
       <r>   -16.4700     0.0000    72.0000 </r>
       <r>   -16.3755     0.0000    72.0000 </r>
       <r>   -16.2811     0.0000    72.0000 </r>
       <r>   -16.1866     2.2945    72.2167 </r>
       <r>   -16.0922   105.6376    83.7880 </r>
       <r>   -15.9978     0.0000    84.0000 </r>
       <r>   -15.9033    63.5289    90.0000 </r>
       <r>   -15.8089    42.3526    94.0000 </r>
       <r>   -15.7144     8.0621    94.7614 </r>
       <r>   -15.6200     0.0000    96.0000 </r>
       <r>   -15.5255     0.0000    96.0000 </r>
       <r>   -15.4311     0.0000    96.0000 </r>
       <r>   -15.3366     0.0000    96.0000 </r>
       <r>   -15.2422     0.0000    96.0000 </r>
       <r>   -15.1478     0.0000    96.0000 </r>
       <r>   -15.0533     0.0000    96.0000 </r>
       <r>   -14.9589     0.0000    96.0000 </r>
       <r>   -14.8644     0.0000    96.0000 </r>
       <r>   -14.7700     0.0000    96.0000 </r>
       <r>   -14.6755     0.0000    96.0000 </r>
       <r>   -14.5811    63.3483   101.9829 </r>
       <r>   -14.4866    58.9198   107.5647 </r>
       <r>   -14.3922     0.0010   108.0001 </r>
       <r>   -14.2977    48.5702   112.5873 </r>
       <r>   -14.2033    13.5869   113.9836 </r>
       <r>   -14.1089     0.0000   114.0000 </r>
       <r>   -14.0144    12.1572   115.1482 </r>
       <r>   -13.9200     3.9742   115.5761 </r>
       <r>   -13.8255    20.3534   117.5558 </r>
       <r>   -13.7311     4.9592   118.6018 </r>
       <r>   -13.6366    13.4081   120.0000 </r>
       <r>   -13.5422    42.0176   123.9684 </r>
       <r>   -13.4477     0.0000   124.0000 </r>
       <r>   -13.3533     0.0000   124.0000 </r>
       <r>   -13.2588     0.0000   124.0000 </r>
       <r>   -13.1644     0.0000   124.0000 </r>
       <r>   -13.0700     0.0000   124.0000 </r>
       <r>   -12.9755     0.0000   124.0000 </r>
       <r>   -12.8811     0.0000   124.0000 </r>
       <r>   -12.7866     0.0000   124.0000 </r>
       <r>   -12.6922     2.7733   124.2619 </r>
       <r>   -12.5977    46.8735   129.9974 </r>
       <r>   -12.5033    63.5289   136.0000 </r>
       <r>   -12.4088     0.0000   136.0000 </r>
       <r>   -12.3144    78.1272   143.3787 </r>
       <r>   -12.2199     0.0000   144.0000 </r>
       <r>   -12.1255     0.0000   144.0000 </r>
       <r>   -12.0311     0.0000   144.0000 </r>
       <r>   -11.9366     0.0000   144.0000 </r>
       <r>   -11.8422     0.0000   144.0000 </r>
       <r>   -11.7477     0.0000   144.0000 </r>
       <r>   -11.6533     0.0000   144.0000 </r>
       <r>   -11.5588     0.0000   144.0000 </r>
       <r>   -11.4644     8.4644   144.7994 </r>
       <r>   -11.3699    56.4689   150.7682 </r>
       <r>   -11.2755    33.8471   154.8646 </r>
       <r>   -11.1811    37.8725   159.8441 </r>
       <r>   -11.0866     0.0000   160.0000 </r>
       <r>   -10.9922     0.0763   160.0072 </r>
       <r>   -10.8977    42.2762   164.0000 </r>
       <r>   -10.8033     0.0000   164.0000 </r>
       <r>   -10.7088    17.3667   165.6402 </r>
       <r>   -10.6144    26.8372   168.2710 </r>
       <r>   -10.5199    10.7567   169.3828 </r>
       <r>   -10.4255    26.7652   172.0949 </r>
       <r>   -10.3310    34.3963   175.9822 </r>
       <r>   -10.2366    29.8808   178.8221 </r>
       <r>   -10.1422    35.1404   182.8873 </r>
       <r>   -10.0477    32.9642   186.5815 </r>
       <r>    -9.9533    11.6218   188.0000 </r>
       <r>    -9.8588     0.0000   188.0000 </r>
       <r>    -9.7644     7.1046   188.6710 </r>
       <r>    -9.6699    84.5033   199.9809 </r>
       <r>    -9.5755     0.0000   200.0000 </r>
       <r>    -9.4810    58.6093   205.5354 </r>
       <r>    -9.3866    59.2249   212.0000 </r>
       <r>    -9.2921     0.0213   212.0020 </r>
       <r>    -9.1977   127.0341   223.9998 </r>
       <r>    -9.1033    12.4931   225.1799 </r>
       <r>    -9.0088    26.3795   230.4927 </r>
       <r>    -8.9144    64.3903   237.3497 </r>
       <r>    -8.8199    63.5288   248.0000 </r>
       <r>    -8.7255    41.7744   251.9454 </r>
       <r>    -8.6310    30.4486   254.8757 </r>
       <r>    -8.5366    46.3378   261.3875 </r>
       <r>    -8.4421    16.9660   263.6025 </r>
       <r>    -8.3477    44.4003   267.9999 </r>
       <r>    -8.2533     0.0000   268.0000 </r>
       <r>    -8.1588    23.0308   270.1751 </r>
       <r>    -8.0644    26.2570   273.5490 </r>
       <r>    -7.9699    32.9598   276.8473 </r>
       <r>    -7.8755    19.2592   279.3212 </r>
       <r>    -7.7810    34.9067   284.0000 </r>
       <r>    -7.6866     0.0000   284.0000 </r>
       <r>    -7.5921     0.0000   284.0000 </r>
       <r>    -7.4977     0.0000   284.0000 </r>
       <r>    -7.4032     0.0000   284.0000 </r>
       <r>    -7.3088    40.0509   287.7826 </r>
       <r>    -7.2144    21.1757   290.0000 </r>
       <r>    -7.1199    63.5289   296.0000 </r>
       <r>    -7.0255     0.0000   296.0000 </r>
       <r>    -6.9310     0.0000   296.0000 </r>
       <r>    -6.8366     0.0000   296.0000 </r>
       <r>    -6.7421     0.0000   296.0000 </r>
       <r>    -6.6477     0.0000   296.0000 </r>
       <r>    -6.5532    49.3845   300.6641 </r>
       <r>    -6.4588    34.7542   304.6509 </r>
       <r>    -6.3643    17.0452   306.4440 </r>
       <r>    -6.2699     9.8767   308.0000 </r>
       <r>    -6.1755     0.0000   308.0000 </r>
       <r>    -6.0810     0.0000   308.0000 </r>
       <r>    -5.9866    22.1028   310.0875 </r>
       <r>    -5.8921    22.3357   313.9488 </r>
       <r>    -5.7977    39.8111   317.7604 </r>
       <r>    -5.7032    63.5897   324.0078 </r>
       <r>    -5.6088    63.4431   330.0000 </r>
       <r>    -5.5143    25.8254   332.4391 </r>
       <r>    -5.4199     0.0000   334.0000 </r>
       <r>    -5.3254    21.1763   336.0000 </r>
       <r>    -5.2310     0.0000   336.0000 </r>
       <r>    -5.1366    21.1763   338.0000 </r>
       <r>    -5.0421    52.4040   342.9493 </r>
       <r>    -4.9477    42.3525   348.0000 </r>
       <r>    -4.8532     0.0000   348.0000 </r>
       <r>    -4.7588     0.0000   348.0000 </r>
       <r>    -4.6643     0.0000   348.0000 </r>
       <r>    -4.5699     0.0000   348.0000 </r>
       <r>    -4.4754     0.0000   348.0000 </r>
       <r>    -4.3810     0.0000   348.0000 </r>
       <r>    -4.2866     0.0000   348.0000 </r>
       <r>    -4.1921     0.0000   348.0000 </r>
       <r>    -4.0977     0.0000   348.0000 </r>
       <r>    -4.0032     0.0000   348.0000 </r>
       <r>    -3.9088     0.0000   348.0000 </r>
       <r>    -3.8143     0.0000   348.0000 </r>
       <r>    -3.7199     0.0000   348.0000 </r>
       <r>    -3.6254     0.0000   348.0000 </r>
       <r>    -3.5310     0.0000   348.0000 </r>
       <r>    -3.4365     0.0000   348.0000 </r>
       <r>    -3.3421     0.0000   348.0000 </r>
       <r>    -3.2477     0.0000   348.0000 </r>
       <r>    -3.1532     0.0000   348.0000 </r>
       <r>    -3.0588     0.0000   348.0000 </r>
       <r>    -2.9643     0.0000   348.0000 </r>
       <r>    -2.8699     0.0000   348.0000 </r>
       <r>    -2.7754     0.0000   348.0000 </r>
       <r>    -2.6810     0.0000   348.0000 </r>
       <r>    -2.5865     0.0000   348.0000 </r>
       <r>    -2.4921     0.0000   348.0000 </r>
       <r>    -2.3976     0.0000   348.0000 </r>
       <r>    -2.3032     0.0000   348.0000 </r>
       <r>    -2.2088     0.0000   348.0000 </r>
       <r>    -2.1143     0.0000   348.0000 </r>
       <r>    -2.0199     0.0000   348.0000 </r>
       <r>    -1.9254     2.4141   348.2280 </r>
       <r>    -1.8310    32.0983   352.3998 </r>
       <r>    -1.7365    22.3082   354.7741 </r>
       <r>    -1.6421     9.1691   356.0000 </r>
       <r>    -1.5476    42.3524   360.0000 </r>
       <r>    -1.4532     0.0000   360.0000 </r>
       <r>    -1.3587     0.0000   360.0000 </r>
       <r>    -1.2643     9.6258   360.9091 </r>
       <r>    -1.1699     0.0000   362.0000 </r>
       <r>    -1.0754    33.5563   365.1692 </r>
       <r>    -0.9810    76.5288   372.9630 </r>
       <r>    -0.8865    33.8005   377.4287 </r>
       <r>    -0.7921    28.5569   382.0000 </r>
       <r>    -0.6976     0.0001   382.0000 </r>
       <r>    -0.6032    42.9195   386.0536 </r>
       <r>    -0.5087     0.0000   388.0000 </r>
       <r>    -0.4143     0.0000   388.0000 </r>
       <r>    -0.3199     0.0000   388.0000 </r>
       <r>    -0.2254     0.6891   388.0651 </r>
       <r>    -0.1310    15.8717   390.0000 </r>
       <r>    -0.0365    15.9155   391.5031 </r>
       <r>     0.0579     3.1625   392.0000 </r>
       <r>     0.1524    40.3308   395.8091 </r>
       <r>     0.2468    21.1760   398.0000 </r>
       <r>     0.3413    22.5355   400.1284 </r>
       <r>     0.4357    22.9020   402.6650 </r>
       <r>     0.5302    18.5152   404.8512 </r>
       <r>     0.6246    42.3285   410.0005 </r>
       <r>     0.7190    35.7946   413.6157 </r>
       <r>     0.8135    39.6541   417.9496 </r>
       <r>     0.9079    42.0229   422.4693 </r>
       <r>     1.0024    40.2633   427.1384 </r>
       <r>     1.0968    51.5369   432.4342 </r>
       <r>     1.1913    48.8862   437.8888 </r>
       <r>     1.2857    49.1607   443.6805 </r>
       <r>     1.3802    51.6370   450.2796 </r>
       <r>     1.4746    60.5462   456.8216 </r>
       <r>     1.5691    73.8177   464.7428 </r>
       <r>     1.6635    73.2651   473.0298 </r>
       <r>     1.7579    56.4932   478.8386 </r>
       <r>     1.8524     8.8090   480.0000 </r>
       <r>     1.9468     0.0000   480.0000 </r>
       <r>     2.0413     0.0000   480.0000 </r>
       <r>     2.1357     0.0000   480.0000 </r>
       <r>     2.2302     0.0000   480.0000 </r>
       <r>     2.3246     0.0000   480.0000 </r>
       <r>     2.4191     0.0000   480.0000 </r>
       <r>     2.5135     0.0000   480.0000 </r>
       <r>     2.6080     0.0000   480.0000 </r>
       <r>     2.7024     0.0000   480.0000 </r>
       <r>     2.7968     0.0000   480.0000 </r>
       <r>     2.8913     0.0000   480.0000 </r>
       <r>     2.9857     0.0000   480.0000 </r>
       <r>     3.0802     0.0000   480.0000 </r>
      </set>
     </set>
    </array>
   </total>
  </dos>
 </calculation>
 <structure name="finalpos" >
  <crystal>
   <varray name="basis" >
    <v>      22.51504242      -0.00681186       0.00000000 </v>
    <v>     -11.25300352      19.50404840       0.00000000 </v>
    <v>       0.00000000       0.00000000      20.00000000 </v>
   </varray>
   <i name="volume">   8781.15646566 </i>
   <varray name="rec_basis" >
    <v>       0.04442251       0.02562989       0.00000000 </v>
    <v>       0.00001551       0.05128036       0.00000000 </v>
    <v>       0.00000000       0.00000000       0.05000000 </v>
   </varray>
  </crystal>
  <varray name="positions" >
   <v>       0.89947099       0.09470887       0.42838048 </v>
   <v>       0.84538508       0.46406235       0.43288117 </v>
   <v>       0.59248763       0.14787047       0.43335085 </v>
   <v>       0.86130954       0.13076747       0.54728316 </v>
   <v>       0.84270403       0.39937944       0.55067518 </v>
   <v>       0.53031769       0.14998635       0.55128534 </v>
   <v>       0.89816341       0.82444764       0.42846825 </v>
   <v>       0.16915615       0.09357197       0.42909004 </v>
   <v>       0.52982759       0.40067420       0.43277475 </v>
   <v>       0.86307234       0.74992524       0.54712123 </v>
   <v>       0.24350474       0.13233540       0.54785497 </v>
   <v>       0.59396104       0.46313515       0.55067233 </v>
   <v>       0.05276100       0.13183582       0.48758175 </v>
   <v>       0.86152910       0.94038781       0.48661483 </v>
   <v>       0.89966270       0.28513791       0.48963152 </v>
   <v>       0.81884688       0.09912915       0.33031969 </v>
   <v>       0.82025341       0.17378253       0.36258632 </v>
   <v>       0.89670579       0.17802845       0.33154613 </v>
   <v>       0.81288069       0.33315406       0.35104760 </v>
   <v>       0.86931000       0.41988612       0.32645458 </v>
   <v>       0.90169775       0.37077345       0.36664738 </v>
   <v>       0.52455230       0.12470902       0.32690462 </v>
   <v>       0.96809872       0.10061152       0.62169851 </v>
   <v>       0.89284085       0.09745096       0.65511167 </v>
   <v>       0.88968216       0.02248826       0.62090597 </v>
   <v>       0.70813002       0.09330813       0.48865097 </v>
   <v>       0.70817246       0.28437130       0.49392377 </v>
   <v>       0.89462842       0.49116608       0.64857013 </v>
   <v>       0.57015570       0.09763500       0.64875205 </v>
   <v>       0.65335582       0.12410564       0.61476546 </v>
   <v>       0.63391159       0.18543466       0.64848529 </v>
   <v>       0.05296561       0.94059760       0.48803442 </v>
   <v>       0.70847995       0.63426465       0.48968794 </v>
   <v>       0.35915558       0.09369495       0.49093769 </v>
   <v>       0.89378164       0.73886718       0.33035925 </v>
   <v>       0.81832762       0.66634055       0.36227536 </v>
   <v>       0.81566130       0.73941162       0.33115301 </v>
   <v>       0.25415542       0.17398633       0.33076900 </v>
   <v>       0.32731633       0.17241860       0.36298750 </v>
   <v>       0.25487036       0.09598398       0.33222877 </v>
   <v>       0.66068025       0.49911797       0.35101293 </v>
   <v>       0.57399566       0.46901918       0.32638077 </v>
   <v>       0.62322055       0.55044025       0.36668222 </v>
   <v>       0.49453264       0.18124866       0.35195135 </v>
   <v>       0.44302191       0.09238716       0.36707954 </v>
   <v>       0.90016471       0.63429189       0.48796957 </v>
   <v>       0.70897034       0.44341395       0.49384384 </v>
   <v>       0.35943113       0.28545908       0.48824294 </v>
   <v>       0.55021657       0.28490089       0.49387410 </v>
   <v>       0.89356383       0.88684296       0.62199315 </v>
   <v>       0.89625793       0.81437858       0.65511287 </v>
   <v>       0.97145931       0.88607410       0.62112826 </v>
   <v>       0.10660016       0.02555811       0.62242046 </v>
   <v>       0.17885236       0.10074659       0.65576975 </v>
   <v>       0.10703759       0.10404859       0.62173283 </v>
   <v>       0.86855720       0.54816489       0.61449839 </v>
   <v>       0.80688221       0.46734036       0.64778028 </v>
   <v>       0.50236491       0.42373250       0.64828981 </v>
   <v>       0.44473850       0.34082803       0.61419021 </v>
   <v>       0.52518665       0.35907974       0.64776438 </v>
   <v>       0.95308841       0.04019007       0.48747685 </v>
   <v>       0.91751019       0.96845635       0.48744926 </v>
   <v>       0.02483984       0.07585429       0.48798152 </v>
   <v>       0.80763491       0.18553607       0.48909264 </v>
   <v>       0.84369156       0.25748800       0.48982555 </v>
   <v>       0.84892465       0.14637891       0.35943306 </v>
   <v>       0.86501538       0.12923378       0.42720940 </v>
   <v>       0.84594597       0.14731372       0.48769692 </v>
   <v>       0.83863327       0.36954417       0.49172429 </v>
   <v>       0.84928788       0.40660732       0.43142756 </v>
   <v>       0.85909459       0.38143452       0.36511863 </v>
   <v>       0.53119121       0.14410103       0.43199637 </v>
   <v>       0.91481093       0.07835508       0.48767694 </v>
   <v>       0.89564334       0.09637416       0.54836816 </v>
   <v>       0.91241013       0.07830852       0.61541364 </v>
   <v>       0.73568995       0.14926202       0.48965148 </v>
   <v>       0.80801815       0.29344596       0.49158745 </v>
   <v>       0.73626120       0.25647524       0.49250533 </v>
   <v>       0.69952242       0.18472818       0.49136023 </v>
   <v>       0.84721580       0.46108723       0.55231974 </v>
   <v>       0.61294815       0.13747343       0.61968419 </v>
   <v>       0.58760264       0.14561215       0.55280446 </v>
   <v>       0.62342372       0.15393245       0.49231107 </v>
   <v>       0.95318811       0.93240011       0.48769346 </v>
   <v>       0.02493636       0.96855989       0.48824880 </v>
   <v>       0.06103956       0.04030153       0.48809741 </v>
   <v>       0.80800677       0.64166442       0.48878399 </v>
   <v>       0.73605754       0.60587809       0.48978848 </v>
   <v>       0.35190479       0.18586800       0.48955684 </v>
   <v>       0.38764765       0.14965802       0.49072322 </v>
   <v>       0.84650418       0.72242881       0.35922780 </v>
   <v>       0.86382034       0.75547966       0.42708928 </v>
   <v>       0.84622926       0.71817578       0.48746957 </v>
   <v>       0.27123109       0.14388229       0.35996898 </v>
   <v>       0.23812971       0.12812952       0.42781296 </v>
   <v>       0.27536094       0.14756333       0.48824887 </v>
   <v>       0.62395966       0.48877303       0.49175784 </v>
   <v>       0.58713776       0.46213984       0.43136772 </v>
   <v>       0.61243487       0.49713870       0.36508119 </v>
   <v>       0.50468483       0.15443643       0.49239629 </v>
   <v>       0.49635993       0.13483428       0.36569493 </v>
   <v>       0.70003707       0.53426297       0.49162221 </v>
   <v>       0.73692562       0.49940201       0.49238108 </v>
   <v>       0.80866414       0.53431069       0.49096451 </v>
   <v>       0.84421311       0.60593526       0.48915673 </v>
   <v>       0.45928998       0.18516544       0.49225967 </v>
   <v>       0.49422344       0.25692710       0.49261381 </v>
   <v>       0.45938067       0.29382020       0.49112765 </v>
   <v>       0.38772784       0.25780800       0.48954619 </v>
   <v>       0.91500612       0.85597819       0.48783438 </v>
   <v>       0.89740064       0.81864005       0.54841327 </v>
   <v>       0.91560755       0.85324585       0.61556199 </v>
   <v>       0.13750392       0.07854280       0.48840117 </v>
   <v>       0.17477131       0.09792789       0.54903544 </v>
   <v>       0.14005287       0.08123720       0.61614061 </v>
   <v>       0.85504094       0.49434410       0.61927398 </v>
   <v>       0.83923304       0.48883164       0.49184903 </v>
   <v>       0.49871508       0.38070571       0.61909447 </v>
   <v>       0.53228219       0.40587392       0.55221577 </v>
   <v>       0.50486199       0.36989778       0.49177978 </v>
  </varray>
 </structure>
</modeling>
