<?xml version="1.0" encoding="ISO-8859-1"?>
<modeling>
 <generator>
  <i name="program" type="string">vasp </i>
  <i name="version" type="string">5.4.4.18Apr17-6-g9f103f2a35  </i>
  <i name="subversion" type="string">(build Jun 07 2020 16:50:00) complex            parallel </i>
  <i name="platform" type="string">LinuxIFC </i>
  <i name="date" type="string">2023 02 03 </i>
  <i name="time" type="string">10:19:52 </i>
 </generator>
 <incar>
  <i type="string" name="SYSTEM">Simulation for cell shape cell volume r</i>
  <i type="int" name="ISTART">     1</i>
  <i type="string" name="PREC">high</i>
  <i type="string" name="ALGO">48</i>
  <i type="int" name="ICHARG">    11</i>
  <i type="int" name="NELM">   200</i>
  <i type="int" name="IBRION">    -1</i>
  <i name="EDIFF">      0.00001000</i>
  <i name="EDIFFG">     -0.01000000</i>
  <i type="int" name="NSW">     0</i>
  <i type="int" name="ISIF">     2</i>
  <i name="ENCUT">    500.00000000</i>
  <i name="POTIM">      0.30000000</i>
  <i type="string" name="LREAL">A</i>
  <i type="int" name="ISMEAR">     0</i>
  <i name="SIGMA">      0.01000000</i>
  <i type="int" name="NWRITE">     0</i>
  <i type="logical" name="LWAVE"> T  </i>
  <i type="logical" name="LCHARG"> T  </i>
  <v type="int" name="KPOINT_BSE">    -1     0     0     0</v>
  <i type="int" name="NELM">   200</i>
  <i type="string" name="GGA">PE</i>
 </incar>
 <structure name="primitive_cell" >
  <crystal>
   <varray name="basis" >
    <v>      21.92866838       0.01600975       0.00000000 </v>
    <v>     -10.95045470      18.97902467       0.00000000 </v>
    <v>       0.00000000       0.00000000      20.00000000 </v>
   </varray>
   <i name="volume">   8327.20104154 </i>
   <varray name="rec_basis" >
    <v>       0.04558320       0.02630045       0.00000000 </v>
    <v>      -0.00003845       0.05266756       0.00000000 </v>
    <v>       0.00000000       0.00000000       0.05000000 </v>
   </varray>
  </crystal>
  <varray name="positions" >
   <v>       0.37817662      -0.34875002      -0.47394886 </v>
   <v>       0.39466588      -0.28125335      -0.47361335 </v>
   <v>       0.31230652      -0.40402434      -0.47379189 </v>
   <v>       0.43868227      -0.36409836      -0.47679465 </v>
   <v>       0.33936829      -0.27059885      -0.47384965 </v>
   <v>       0.26132918      -0.38748869      -0.47388791 </v>
   <v>       0.41463464      -0.43387728      -0.48855509 </v>
   <v>       0.36123433      -0.46513714      -0.48467773 </v>
   <v>      -0.49967789      -0.31731733      -0.47008446 </v>
   <v>       0.27194648      -0.32153394      -0.47381236 </v>
   <v>       0.45567990      -0.17112146      -0.48368019 </v>
   <v>       0.35456527      -0.19477628      -0.47646308 </v>
   <v>       0.18551194      -0.44798511      -0.47631715 </v>
   <v>       0.45602092      -0.46634950      -0.49694697 </v>
   <v>       0.48097286      -0.38271557       0.39037668 </v>
   <v>       0.42437402      -0.14896625      -0.48759330 </v>
   <v>       0.17063951       0.49033677      -0.46932838 </v>
   <v>      -0.44191171      -0.33002499       0.43693230 </v>
   <v>      -0.47109172      -0.38039472       0.41015604 </v>
   <v>      -0.48884530      -0.44138274       0.45585602 </v>
   <v>       0.16180652      -0.37048813      -0.48439240 </v>
   <v>       0.39627383       0.45676947      -0.42174226 </v>
   <v>       0.13973968      -0.42395042      -0.48804098 </v>
   <v>       0.30764433      -0.17999161      -0.47008359 </v>
   <v>       0.43850288       0.47370671      -0.45850906 </v>
   <v>       0.45672050      -0.07516595      -0.49618327 </v>
   <v>      -0.43938568      -0.38040920       0.36773154 </v>
   <v>       0.37348459      -0.13354862       0.39068204 </v>
   <v>       0.12420433      -0.49102074       0.39105007 </v>
   <v>      -0.46664330      -0.05801832      -0.42077764 </v>
   <v>       0.10031166       0.43215246       0.43807914 </v>
   <v>      -0.45270098      -0.47864365       0.45084697 </v>
   <v>       0.06594340      -0.46547821      -0.49627298 </v>
   <v>      -0.48342139      -0.03273156      -0.45776326 </v>
   <v>       0.47467875       0.43648517      -0.46348137 </v>
   <v>       0.07886947       0.46106339       0.41117286 </v>
   <v>       0.32059440      -0.10950141       0.43754544 </v>
   <v>       0.37092079      -0.08811350       0.41070888 </v>
   <v>       0.43184778      -0.04500363       0.45640674 </v>
   <v>      -0.47012382       0.46150979       0.48940171 </v>
   <v>      -0.41052478      -0.46176461       0.41402642 </v>
   <v>       0.03577950       0.47905403       0.45680227 </v>
   <v>       0.04877232      -0.40537019      -0.42141405 </v>
   <v>       0.42499617       0.37527212      -0.37551958 </v>
   <v>       0.02353027      -0.44779075      -0.45802405 </v>
   <v>       0.04706679       0.42898872       0.36896385 </v>
   <v>       0.45703579       0.37554816      -0.41776627 </v>
   <v>       0.37072245      -0.05630405       0.36843091 </v>
   <v>      -0.44600605       0.04060112      -0.46307445 </v>
   <v>       0.46928014       0.02832951       0.45107912 </v>
   <v>       0.42827795       0.32517208      -0.44461092 </v>
   <v>      -0.49493421       0.37825461      -0.39773795 </v>
   <v>      -0.38515551       0.05208471      -0.37484361 </v>
   <v>      -0.42859236       0.42915999       0.48131584 </v>
   <v>      -0.03751650       0.44290654       0.45182001 </v>
   <v>      -0.47077346       0.07074272       0.48939519 </v>
   <v>      -0.38519490       0.08380486      -0.41727382 </v>
   <v>      -0.04978109      -0.48391825      -0.46304851 </v>
   <v>      -0.37520017       0.46049709       0.47739102 </v>
   <v>       0.45245959       0.05361094       0.41412491 </v>
   <v>      -0.06278139       0.40043699       0.41525624 </v>
   <v>      -0.33479353       0.10509028      -0.44395630 </v>
   <v>      -0.07990662       0.46067701       0.48997662 </v>
   <v>      -0.45249267       0.35941775       0.46940158 </v>
   <v>       0.48590469       0.31257489       0.46266797 </v>
   <v>      -0.06132741      -0.43398981      -0.37521390 </v>
   <v>      -0.38780523       0.12930737      -0.39748694 </v>
   <v>      -0.09298385      -0.46594850      -0.41754365 </v>
   <v>      -0.43821477       0.14452089       0.48054345 </v>
   <v>      -0.11426182      -0.43694027      -0.44454006 </v>
   <v>      -0.32161120       0.17511340       0.46302027 </v>
   <v>      -0.46940153       0.16678714       0.47627108 </v>
   <v>      -0.13847178       0.48614543      -0.39760236 </v>
   <v>      -0.15364386       0.41929740       0.48150749 </v>
   <v>      -0.39191656       0.34415969       0.46641454 </v>
   <v>      -0.36840681       0.19010962       0.46911258 </v>
   <v>      -0.32607163       0.39943312       0.46670695 </v>
   <v>      -0.17571140       0.36586726       0.47746323 </v>
   <v>      -0.18450279      -0.49492340       0.46274854 </v>
   <v>      -0.19933631       0.44338117       0.46951547 </v>
   <v>      -0.40833426       0.27668200       0.46567953 </v>
   <v>      -0.35308720       0.26599210       0.46598062 </v>
   <v>      -0.27509933       0.38288791       0.46651877 </v>
   <v>      -0.28566846       0.31695031       0.46592361 </v>
  </varray>
 </structure>
 <varray name="primitive_index" >
  <v type="int" >        1 </v>
  <v type="int" >       74 </v>
  <v type="int" >       73 </v>
  <v type="int" >        3 </v>
  <v type="int" >        2 </v>
  <v type="int" >       23 </v>
  <v type="int" >       80 </v>
  <v type="int" >       46 </v>
  <v type="int" >       69 </v>
  <v type="int" >       75 </v>
  <v type="int" >       41 </v>
  <v type="int" >        4 </v>
  <v type="int" >        5 </v>
  <v type="int" >       15 </v>
  <v type="int" >       58 </v>
  <v type="int" >       79 </v>
  <v type="int" >       68 </v>
  <v type="int" >       59 </v>
  <v type="int" >       32 </v>
  <v type="int" >       29 </v>
  <v type="int" >       51 </v>
  <v type="int" >       42 </v>
  <v type="int" >       81 </v>
  <v type="int" >       67 </v>
  <v type="int" >       17 </v>
  <v type="int" >       11 </v>
  <v type="int" >       60 </v>
  <v type="int" >       53 </v>
  <v type="int" >       63 </v>
  <v type="int" >       37 </v>
  <v type="int" >       64 </v>
  <v type="int" >       30 </v>
  <v type="int" >       19 </v>
  <v type="int" >       13 </v>
  <v type="int" >       16 </v>
  <v type="int" >       36 </v>
  <v type="int" >       54 </v>
  <v type="int" >       28 </v>
  <v type="int" >       25 </v>
  <v type="int" >       31 </v>
  <v type="int" >       57 </v>
  <v type="int" >       33 </v>
  <v type="int" >       47 </v>
  <v type="int" >       44 </v>
  <v type="int" >       21 </v>
  <v type="int" >       65 </v>
  <v type="int" >       18 </v>
  <v type="int" >       55 </v>
  <v type="int" >       12 </v>
  <v type="int" >       26 </v>
  <v type="int" >       45 </v>
  <v type="int" >       43 </v>
  <v type="int" >       39 </v>
  <v type="int" >       83 </v>
  <v type="int" >       34 </v>
  <v type="int" >       27 </v>
  <v type="int" >       14 </v>
  <v type="int" >       20 </v>
  <v type="int" >       61 </v>
  <v type="int" >       52 </v>
  <v type="int" >       62 </v>
  <v type="int" >       40 </v>
  <v type="int" >       35 </v>
  <v type="int" >        8 </v>
  <v type="int" >       72 </v>
  <v type="int" >       49 </v>
  <v type="int" >       38 </v>
  <v type="int" >       22 </v>
  <v type="int" >       82 </v>
  <v type="int" >       50 </v>
  <v type="int" >       70 </v>
  <v type="int" >       56 </v>
  <v type="int" >       48 </v>
  <v type="int" >       84 </v>
  <v type="int" >        6 </v>
  <v type="int" >        9 </v>
  <v type="int" >       76 </v>
  <v type="int" >       66 </v>
  <v type="int" >       71 </v>
  <v type="int" >       10 </v>
  <v type="int" >       77 </v>
  <v type="int" >        7 </v>
  <v type="int" >       24 </v>
  <v type="int" >       78 </v>
 </varray>
 <kpoints>
  <generation param="listgenerated">
   <i name="divisions" type="int">      20 </i>
   <v>       0.00000000       0.00000000       0.00000000 </v>
   <v>       0.50000000       0.00000000       0.00000000 </v>
   <v>       0.33333333       0.33333333       0.00000000 </v>
   <v>       0.00000000       0.00000000       0.00000000 </v>
  </generation>
  <varray name="kpointlist" >
   <v>       0.00000000       0.00000000       0.00000000 </v>
   <v>       0.02631579       0.00000000       0.00000000 </v>
   <v>       0.05263158       0.00000000       0.00000000 </v>
   <v>       0.07894737       0.00000000       0.00000000 </v>
   <v>       0.10526316       0.00000000       0.00000000 </v>
   <v>       0.13157895       0.00000000       0.00000000 </v>
   <v>       0.15789474       0.00000000       0.00000000 </v>
   <v>       0.18421053       0.00000000       0.00000000 </v>
   <v>       0.21052632       0.00000000       0.00000000 </v>
   <v>       0.23684211       0.00000000       0.00000000 </v>
   <v>       0.26315789       0.00000000       0.00000000 </v>
   <v>       0.28947368       0.00000000       0.00000000 </v>
   <v>       0.31578947       0.00000000       0.00000000 </v>
   <v>       0.34210526       0.00000000       0.00000000 </v>
   <v>       0.36842105       0.00000000       0.00000000 </v>
   <v>       0.39473684       0.00000000       0.00000000 </v>
   <v>       0.42105263       0.00000000       0.00000000 </v>
   <v>       0.44736842       0.00000000       0.00000000 </v>
   <v>       0.47368421       0.00000000       0.00000000 </v>
   <v>       0.50000000       0.00000000       0.00000000 </v>
   <v>       0.50000000       0.00000000       0.00000000 </v>
   <v>       0.49122807       0.01754386       0.00000000 </v>
   <v>       0.48245614       0.03508772       0.00000000 </v>
   <v>       0.47368421       0.05263158       0.00000000 </v>
   <v>       0.46491228       0.07017544       0.00000000 </v>
   <v>       0.45614035       0.08771930       0.00000000 </v>
   <v>       0.44736842       0.10526316       0.00000000 </v>
   <v>       0.43859649       0.12280702       0.00000000 </v>
   <v>       0.42982456       0.14035088       0.00000000 </v>
   <v>       0.42105263       0.15789474       0.00000000 </v>
   <v>       0.41228070       0.17543860       0.00000000 </v>
   <v>       0.40350877       0.19298246       0.00000000 </v>
   <v>       0.39473684       0.21052632       0.00000000 </v>
   <v>       0.38596491       0.22807018       0.00000000 </v>
   <v>       0.37719298       0.24561404       0.00000000 </v>
   <v>       0.36842105       0.26315789       0.00000000 </v>
   <v>       0.35964912       0.28070175       0.00000000 </v>
   <v>       0.35087719       0.29824561       0.00000000 </v>
   <v>       0.34210526       0.31578947       0.00000000 </v>
   <v>       0.33333333       0.33333333       0.00000000 </v>
   <v>       0.33333333       0.33333333       0.00000000 </v>
   <v>       0.31578947       0.31578947       0.00000000 </v>
   <v>       0.29824561       0.29824561       0.00000000 </v>
   <v>       0.28070175       0.28070175       0.00000000 </v>
   <v>       0.26315789       0.26315789       0.00000000 </v>
   <v>       0.24561404       0.24561404       0.00000000 </v>
   <v>       0.22807018       0.22807018       0.00000000 </v>
   <v>       0.21052632       0.21052632       0.00000000 </v>
   <v>       0.19298246       0.19298246       0.00000000 </v>
   <v>       0.17543860       0.17543860       0.00000000 </v>
   <v>       0.15789474       0.15789474       0.00000000 </v>
   <v>       0.14035088       0.14035088       0.00000000 </v>
   <v>       0.12280702       0.12280702       0.00000000 </v>
   <v>       0.10526316       0.10526316       0.00000000 </v>
   <v>       0.08771930       0.08771930       0.00000000 </v>
   <v>       0.07017544       0.07017544       0.00000000 </v>
   <v>       0.05263158       0.05263158       0.00000000 </v>
   <v>       0.03508772       0.03508772       0.00000000 </v>
   <v>       0.01754386       0.01754386       0.00000000 </v>
   <v>       0.00000000       0.00000000       0.00000000 </v>
  </varray>
  <varray name="weights" >
   <v>       0.01666667 </v>
   <v>       0.01666667 </v>
   <v>       0.01666667 </v>
   <v>       0.01666667 </v>
   <v>       0.01666667 </v>
   <v>       0.01666667 </v>
   <v>       0.01666667 </v>
   <v>       0.01666667 </v>
   <v>       0.01666667 </v>
   <v>       0.01666667 </v>
   <v>       0.01666667 </v>
   <v>       0.01666667 </v>
   <v>       0.01666667 </v>
   <v>       0.01666667 </v>
   <v>       0.01666667 </v>
   <v>       0.01666667 </v>
   <v>       0.01666667 </v>
   <v>       0.01666667 </v>
   <v>       0.01666667 </v>
   <v>       0.01666667 </v>
   <v>       0.01666667 </v>
   <v>       0.01666667 </v>
   <v>       0.01666667 </v>
   <v>       0.01666667 </v>
   <v>       0.01666667 </v>
   <v>       0.01666667 </v>
   <v>       0.01666667 </v>
   <v>       0.01666667 </v>
   <v>       0.01666667 </v>
   <v>       0.01666667 </v>
   <v>       0.01666667 </v>
   <v>       0.01666667 </v>
   <v>       0.01666667 </v>
   <v>       0.01666667 </v>
   <v>       0.01666667 </v>
   <v>       0.01666667 </v>
   <v>       0.01666667 </v>
   <v>       0.01666667 </v>
   <v>       0.01666667 </v>
   <v>       0.01666667 </v>
   <v>       0.01666667 </v>
   <v>       0.01666667 </v>
   <v>       0.01666667 </v>
   <v>       0.01666667 </v>
   <v>       0.01666667 </v>
   <v>       0.01666667 </v>
   <v>       0.01666667 </v>
   <v>       0.01666667 </v>
   <v>       0.01666667 </v>
   <v>       0.01666667 </v>
   <v>       0.01666667 </v>
   <v>       0.01666667 </v>
   <v>       0.01666667 </v>
   <v>       0.01666667 </v>
   <v>       0.01666667 </v>
   <v>       0.01666667 </v>
   <v>       0.01666667 </v>
   <v>       0.01666667 </v>
   <v>       0.01666667 </v>
   <v>       0.01666667 </v>
  </varray>
 </kpoints>
 <parameters>
  <separator name="general" >
   <i type="string" name="SYSTEM">Simulation for cell shape cell volume r</i>
   <i type="logical" name="LCOMPAT"> F  </i>
  </separator>
  <separator name="electronic" >
   <i type="string" name="PREC">high</i>
   <i name="ENMAX">    500.00000000</i>
   <i name="ENAUG">    644.87300000</i>
   <i name="EDIFF">      0.00001000</i>
   <i type="int" name="IALGO">    38</i>
   <i type="int" name="IWAVPR">    10</i>
   <i type="int" name="NBANDS">   184</i>
   <i name="NELECT">    270.00000000</i>
   <i type="int" name="TURBO">     0</i>
   <i type="int" name="IRESTART">     0</i>
   <i type="int" name="NREBOOT">     0</i>
   <i type="int" name="NMIN">     0</i>
   <i name="EREF">      0.00000000</i>
   <separator name="electronic smearing" >
    <i type="int" name="ISMEAR">     0</i>
    <i name="SIGMA">      0.01000000</i>
    <i name="KSPACING">      0.50000000</i>
    <i type="logical" name="KGAMMA"> T  </i>
   </separator>
   <separator name="electronic projectors" >
    <i type="logical" name="LREAL"> T  </i>
    <v name="ROPT">     -0.00040000     -0.00040000     -0.00040000     -0.00040000</v>
    <i type="int" name="LMAXPAW">  -100</i>
    <i type="int" name="LMAXMIX">     2</i>
    <i type="logical" name="NLSPLINE"> F  </i>
   </separator>
   <separator name="electronic startup" >
    <i type="int" name="ISTART">     1</i>
    <i type="int" name="ICHARG">    11</i>
    <i type="int" name="INIWAV">     1</i>
   </separator>
   <separator name="electronic spin" >
    <i type="int" name="ISPIN">     1</i>
    <i type="logical" name="LNONCOLLINEAR"> F  </i>
    <v name="MAGMOM">      1.00000000      1.00000000      1.00000000      1.00000000      1.00000000      1.00000000      1.00000000      1.00000000      1.00000000      1.00000000      1.00000000      1.00000000      1.00000000      1.00000000      1.00000000      1.00000000      1.00000000      1.00000000      1.00000000      1.00000000
      1.00000000      1.00000000      1.00000000      1.00000000      1.00000000      1.00000000      1.00000000      1.00000000      1.00000000      1.00000000      1.00000000      1.00000000      1.00000000      1.00000000      1.00000000      1.00000000      1.00000000      1.00000000      1.00000000      1.00000000
      1.00000000      1.00000000      1.00000000      1.00000000      1.00000000      1.00000000      1.00000000      1.00000000      1.00000000      1.00000000      1.00000000      1.00000000      1.00000000      1.00000000      1.00000000      1.00000000      1.00000000      1.00000000      1.00000000      1.00000000
      1.00000000      1.00000000      1.00000000      1.00000000      1.00000000      1.00000000      1.00000000      1.00000000      1.00000000      1.00000000      1.00000000      1.00000000      1.00000000      1.00000000      1.00000000      1.00000000      1.00000000      1.00000000      1.00000000      1.00000000
      1.00000000      1.00000000      1.00000000      1.00000000</v>
    <i name="NUPDOWN">     -1.00000000</i>
    <i type="logical" name="LSORBIT"> F  </i>
    <v name="SAXIS">      0.00000000      0.00000000      1.00000000</v>
    <i type="logical" name="LSPIRAL"> F  </i>
    <v name="QSPIRAL">      0.00000000      0.00000000      0.00000000</v>
    <i type="logical" name="LZEROZ"> F  </i>
   </separator>
   <separator name="electronic exchange-correlation" >
    <i type="logical" name="LASPH"> F  </i>
    <i type="logical" name="LMETAGGA"> F  </i>
   </separator>
   <separator name="electronic convergence" >
    <i type="int" name="NELM">   200</i>
    <i type="int" name="NELMDL">     0</i>
    <i type="int" name="NELMIN">     2</i>
    <i name="ENINI">    500.00000000</i>
    <separator name="electronic convergence detail" >
     <i type="logical" name="LDIAG"> T  </i>
     <i type="logical" name="LSUBROT"> F  </i>
     <i name="WEIMIN">      0.00000000</i>
     <i name="EBREAK">      0.00000001</i>
     <i name="DEPER">      0.30000000</i>
     <i type="int" name="NRMM">     4</i>
     <i name="TIME">      0.40000000</i>
    </separator>
   </separator>
   <separator name="electronic mixer" >
    <i name="AMIX">      0.40000000</i>
    <i name="BMIX">      1.00000000</i>
    <i name="AMIN">      0.10000000</i>
    <i name="AMIX_MAG">      1.60000000</i>
    <i name="BMIX_MAG">      1.00000000</i>
    <separator name="electronic mixer details" >
     <i type="int" name="IMIX">     4</i>
     <i type="logical" name="MIXFIRST"> F  </i>
     <i type="int" name="MAXMIX">   -45</i>
     <i name="WC">    100.00000000</i>
     <i type="int" name="INIMIX">     1</i>
     <i type="int" name="MIXPRE">     1</i>
     <i type="int" name="MREMOVE">     5</i>
    </separator>
   </separator>
   <separator name="electronic dipolcorrection" >
    <i type="logical" name="LDIPOL"> F  </i>
    <i type="logical" name="LMONO"> F  </i>
    <i type="int" name="IDIPOL">     0</i>
    <i name="EPSILON">      1.00000000</i>
    <v name="DIPOL">   -100.00000000   -100.00000000   -100.00000000</v>
    <i name="EFIELD">      0.00000000</i>
   </separator>
  </separator>
  <separator name="grids" >
   <i type="int" name="NGX">   160</i>
   <i type="int" name="NGY">   160</i>
   <i type="int" name="NGZ">   150</i>
   <i type="int" name="NGXF">   250</i>
   <i type="int" name="NGYF">   250</i>
   <i type="int" name="NGZF">   224</i>
   <i type="logical" name="ADDGRID"> F  </i>
  </separator>
  <separator name="ionic" >
   <i type="int" name="NSW">     0</i>
   <i type="int" name="IBRION">    -1</i>
   <i type="int" name="MDALGO">     0</i>
   <i type="int" name="ISIF">     2</i>
   <i name="PSTRESS">      0.00000000</i>
   <i name="EDIFFG">     -0.01000000</i>
   <i type="int" name="NFREE">     0</i>
   <i name="POTIM">      0.30000000</i>
   <i name="SMASS">     -3.00000000</i>
   <i name="SCALEE">      1.00000000</i>
  </separator>
  <separator name="ionic md" >
   <i name="TEBEG">      0.00010000</i>
   <i name="TEEND">      0.00010000</i>
   <i type="int" name="NBLOCK">     1</i>
   <i type="int" name="KBLOCK">     1</i>
   <i type="int" name="NPACO">   256</i>
   <i name="APACO">     16.00000000</i>
  </separator>
  <separator name="symmetry" >
   <i type="int" name="ISYM">     2</i>
   <i name="SYMPREC">      0.00001000</i>
  </separator>
  <separator name="dos" >
   <i type="int" name="LORBIT">     0</i>
   <v name="RWIGS">     -1.00000000     -1.00000000     -1.00000000     -1.00000000</v>
   <i type="int" name="NEDOS">   301</i>
   <i name="EMIN">     10.00000000</i>
   <i name="EMAX">    -10.00000000</i>
   <i name="EFERMI">      0.00000000</i>
  </separator>
  <separator name="writing" >
   <i type="int" name="NWRITE">     0</i>
   <i type="logical" name="LWAVE"> T  </i>
   <i type="logical" name="LDOWNSAMPLE"> F  </i>
   <i type="logical" name="LCHARG"> T  </i>
   <i type="logical" name="LPARD"> F  </i>
   <i type="logical" name="LVTOT"> F  </i>
   <i type="logical" name="LVHAR"> F  </i>
   <i type="logical" name="LELF"> F  </i>
   <i type="logical" name="LOPTICS"> F  </i>
   <v name="STM">      0.00000000      0.00000000      0.00000000      0.00000000      0.00000000      0.00000000      0.00000000</v>
  </separator>
  <separator name="performance" >
   <i type="int" name="NPAR">     8</i>
   <i type="int" name="NSIM">     4</i>
   <i type="int" name="NBLK">    -1</i>
   <i type="logical" name="LPLANE"> T  </i>
   <i type="logical" name="LSCALAPACK"> T  </i>
   <i type="logical" name="LSCAAWARE"> F  </i>
   <i type="logical" name="LSCALU"> F  </i>
   <i type="logical" name="LASYNC"> F  </i>
   <i type="logical" name="LORBITALREAL"> F  </i>
  </separator>
  <separator name="miscellaneous" >
   <i type="int" name="IDIOT">     3</i>
   <i type="int" name="ISPECIAL">     0</i>
   <i type="logical" name="LMUSIC"> F  </i>
   <v name="POMASS">     12.01100000      1.00000000     16.00000000     14.00100000</v>
   <v name="DARWINR">      0.00000000      0.00000000      0.00000000      0.00000000</v>
   <v name="DARWINV">      1.00000000      1.00000000      1.00000000      1.00000000</v>
   <i type="logical" name="LCORR"> T  </i>
  </separator>
  <i type="logical" name="GGA_COMPAT"> T  </i>
  <i type="logical" name="LBERRY"> F  </i>
  <i type="int" name="ICORELEVEL">     0</i>
  <i type="logical" name="LDAU"> F  </i>
  <i type="int" name="I_CONSTRAINED_M">     0</i>
  <separator name="electronic exchange-correlation" >
   <i type="string" name="GGA">PE</i>
   <i type="int" name="VOSKOWN">     0</i>
   <i type="logical" name="LHFCALC"> F  </i>
   <i type="string" name="PRECFOCK"></i>
   <i type="logical" name="LSYMGRAD"> F  </i>
   <i type="logical" name="LHFONE"> F  </i>
   <i type="logical" name="LRHFCALC"> F  </i>
   <i type="logical" name="LTHOMAS"> F  </i>
   <i type="logical" name="LMODELHF"> F  </i>
   <i name="ENCUT4O">     -1.00000000</i>
   <i type="int" name="EXXOEP">     0</i>
   <i type="int" name="FOURORBIT">     0</i>
   <i name="AEXX">      0.00000000</i>
   <i name="HFALPHA">      0.00000000</i>
   <i name="MCALPHA">      0.00000000</i>
   <i name="ALDAX">      1.00000000</i>
   <i name="AGGAX">      1.00000000</i>
   <i name="ALDAC">      1.00000000</i>
   <i name="AGGAC">      1.00000000</i>
   <i type="int" name="NKREDX">     1</i>
   <i type="int" name="NKREDY">     1</i>
   <i type="int" name="NKREDZ">     1</i>
   <i type="logical" name="SHIFTRED"> F  </i>
   <i type="logical" name="ODDONLY"> F  </i>
   <i type="logical" name="EVENONLY"> F  </i>
   <i type="int" name="LMAXFOCK">     0</i>
   <i type="int" name="NMAXFOCKAE">     0</i>
   <i type="logical" name="LFOCKAEDFT"> F  </i>
   <i name="HFSCREEN">      0.00000000</i>
   <i name="HFSCREENC">      0.00000000</i>
   <i type="int" name="NBANDSGWLOW">     0</i>
  </separator>
  <separator name="vdW DFT" >
   <i type="logical" name="LUSE_VDW"> F  </i>
   <i name="Zab_VDW">     -0.84910000</i>
   <i name="PARAM1">      0.12340000</i>
   <i name="PARAM2">      1.00000000</i>
   <i name="PARAM3">      0.00000000</i>
  </separator>
  <separator name="model GW" >
   <i type="int" name="MODEL_GW">     0</i>
   <i name="MODEL_EPS0">     59.48000744</i>
   <i name="MODEL_ALPHA">      1.00000000</i>
  </separator>
  <separator name="linear response parameters" >
   <i type="logical" name="LEPSILON"> F  </i>
   <i type="logical" name="LRPA"> F  </i>
   <i type="logical" name="LNABLA"> F  </i>
   <i type="logical" name="LVEL"> F  </i>
   <i type="int" name="KINTER">     0</i>
   <i name="CSHIFT">      0.10000000</i>
   <i name="OMEGAMAX">     -1.00000000</i>
   <i name="DEG_THRESHOLD">      0.00200000</i>
   <i name="RTIME">     -0.10000000</i>
   <i name="WPLASMAI">      0.00000000</i>
   <v name="DFIELD">      0.00000000      0.00000000      0.00000000</v>
   <v name="WPLASMA">      0.00000000      0.00000000      0.00000000      0.00000000      0.00000000      0.00000000      0.00000000      0.00000000      0.00000000</v>
  </separator>
  <separator name="orbital magnetization" >
   <i type="logical" name="NUCIND"> F  </i>
   <v name="MAGPOS">      0.00000000      0.00000000      0.00000000</v>
   <i type="logical" name="LNICSALL"> T  </i>
   <i type="logical" name="ORBITALMAG"> F  </i>
   <i type="logical" name="LMAGBLOCH"> F  </i>
   <i type="logical" name="LCHIMAG"> F  </i>
   <i type="logical" name="LGAUGE"> T  </i>
   <i type="int" name="MAGATOM">     0</i>
   <v name="MAGDIPOL">      0.00000000      0.00000000      0.00000000</v>
   <v name="AVECCONST">      0.00000000      0.00000000      0.00000000</v>
  </separator>
  <separator name="response functions" >
   <i type="logical" name="LADDER"> F  </i>
   <i type="logical" name="LRPAFORCE"> F  </i>
   <i type="logical" name="LFXC"> F  </i>
   <i type="logical" name="LHARTREE"> T  </i>
   <i type="int" name="IBSE">     0</i>
   <v type="int" name="KPOINT">    -1     0     0     0</v>
   <i type="logical" name="LTCTE"> F  </i>
   <i type="logical" name="LTETE"> F  </i>
   <i type="logical" name="LTRIPLET"> F  </i>
   <i type="logical" name="LFXCEPS"> F  </i>
   <i type="logical" name="LFXHEG"> F  </i>
   <i type="int" name="NATURALO">     2</i>
   <i type="logical" name="L2ORDER"> F  </i>
   <i type="logical" name="LMP2LT"> F  </i>
   <i type="logical" name="LUSEW"> F  </i>
   <i name="ENCUTGW">     -2.00000000</i>
   <i name="ENCUTGWSOFT">     -2.00000000</i>
   <i name="ENCUTLF">     -1.00000000</i>
   <i type="int" name="LMAXMP2">    -1</i>
   <i name="SCISSOR">      0.00000000</i>
   <i type="int" name="NOMEGA">     0</i>
   <i type="int" name="NOMEGAR">     0</i>
   <i type="int" name="NBANDSGW">    -1</i>
   <i type="int" name="NBANDSO">    -1</i>
   <i type="int" name="NBANDSV">    -1</i>
   <i type="int" name="NELM">   200</i>
   <i type="int" name="NELMHF">     1</i>
   <i type="int" name="DIM">     3</i>
   <i type="int" name="ANTIRES">     0</i>
   <i name="OMEGAMAX">    -30.00000000</i>
   <i name="OMEGAMIN">    -30.00000000</i>
   <i name="OMEGATL">   -200.00000000</i>
   <i type="int" name="OMEGAGRID">   140</i>
   <i name="CSHIFT">     -0.10000000</i>
   <i type="logical" name="SELFENERGY"> F  </i>
   <i type="logical" name="LSPECTRAL"> F  </i>
   <i type="logical" name="LSPECTRALGW"> F  </i>
   <i type="logical" name="LSINGLES"> F  </i>
   <i type="logical" name="LFERMIGW"> F  </i>
   <i type="logical" name="ODDONLYGW"> F  </i>
   <i type="logical" name="EVENONLYGW"> F  </i>
   <i type="int" name="NKREDLFX">     1</i>
   <i type="int" name="NKREDLFY">     1</i>
   <i type="int" name="NKREDLFZ">     1</i>
   <i type="int" name="MAXMEM">  2800</i>
   <i type="int" name="TELESCOPE">     0</i>
   <i type="int" name="TAUPAR">     1</i>
   <i type="int" name="OMEGAPAR">    -1</i>
   <i name="LAMBDA">      1.00000000</i>
  </separator>
  <separator name="External order field" >
   <i name="OFIELD_KAPPA">      0.00000000</i>
   <v name="OFIELD_K">      0.00000000      0.00000000      0.00000000</v>
   <i name="OFIELD_Q6_NEAR">      0.00000000</i>
   <i name="OFIELD_Q6_FAR">      0.00000000</i>
   <i name="OFIELD_A">      0.00000000</i>
  </separator>
  <separator name="solvation model" >
   <i type="logical" name="LSOL"> F  </i>
  </separator>
 </parameters>
 <atominfo>
  <atoms>      84 </atoms>
  <types>       4 </types>
  <array name="atoms" >
   <dimension dim="1">ion</dimension>
   <field type="string">element</field>
   <field type="int">atomtype</field>
   <set>
    <rc><c>C </c><c>   1</c></rc>
    <rc><c>C </c><c>   1</c></rc>
    <rc><c>C </c><c>   1</c></rc>
    <rc><c>C </c><c>   1</c></rc>
    <rc><c>C </c><c>   1</c></rc>
    <rc><c>C </c><c>   1</c></rc>
    <rc><c>C </c><c>   1</c></rc>
    <rc><c>C </c><c>   1</c></rc>
    <rc><c>C </c><c>   1</c></rc>
    <rc><c>C </c><c>   1</c></rc>
    <rc><c>C </c><c>   1</c></rc>
    <rc><c>C </c><c>   1</c></rc>
    <rc><c>C </c><c>   1</c></rc>
    <rc><c>C </c><c>   1</c></rc>
    <rc><c>C </c><c>   1</c></rc>
    <rc><c>C </c><c>   1</c></rc>
    <rc><c>C </c><c>   1</c></rc>
    <rc><c>C </c><c>   1</c></rc>
    <rc><c>C </c><c>   1</c></rc>
    <rc><c>C </c><c>   1</c></rc>
    <rc><c>C </c><c>   1</c></rc>
    <rc><c>C </c><c>   1</c></rc>
    <rc><c>C </c><c>   1</c></rc>
    <rc><c>C </c><c>   1</c></rc>
    <rc><c>C </c><c>   1</c></rc>
    <rc><c>C </c><c>   1</c></rc>
    <rc><c>C </c><c>   1</c></rc>
    <rc><c>C </c><c>   1</c></rc>
    <rc><c>C </c><c>   1</c></rc>
    <rc><c>C </c><c>   1</c></rc>
    <rc><c>C </c><c>   1</c></rc>
    <rc><c>C </c><c>   1</c></rc>
    <rc><c>C </c><c>   1</c></rc>
    <rc><c>C </c><c>   1</c></rc>
    <rc><c>C </c><c>   1</c></rc>
    <rc><c>C </c><c>   1</c></rc>
    <rc><c>H </c><c>   2</c></rc>
    <rc><c>H </c><c>   2</c></rc>
    <rc><c>H </c><c>   2</c></rc>
    <rc><c>H </c><c>   2</c></rc>
    <rc><c>H </c><c>   2</c></rc>
    <rc><c>H </c><c>   2</c></rc>
    <rc><c>H </c><c>   2</c></rc>
    <rc><c>H </c><c>   2</c></rc>
    <rc><c>H </c><c>   2</c></rc>
    <rc><c>H </c><c>   2</c></rc>
    <rc><c>H </c><c>   2</c></rc>
    <rc><c>H </c><c>   2</c></rc>
    <rc><c>H </c><c>   2</c></rc>
    <rc><c>H </c><c>   2</c></rc>
    <rc><c>H </c><c>   2</c></rc>
    <rc><c>H </c><c>   2</c></rc>
    <rc><c>H </c><c>   2</c></rc>
    <rc><c>H </c><c>   2</c></rc>
    <rc><c>H </c><c>   2</c></rc>
    <rc><c>H </c><c>   2</c></rc>
    <rc><c>H </c><c>   2</c></rc>
    <rc><c>H </c><c>   2</c></rc>
    <rc><c>H </c><c>   2</c></rc>
    <rc><c>H </c><c>   2</c></rc>
    <rc><c>H </c><c>   2</c></rc>
    <rc><c>H </c><c>   2</c></rc>
    <rc><c>H </c><c>   2</c></rc>
    <rc><c>H </c><c>   2</c></rc>
    <rc><c>H </c><c>   2</c></rc>
    <rc><c>H </c><c>   2</c></rc>
    <rc><c>O </c><c>   3</c></rc>
    <rc><c>O </c><c>   3</c></rc>
    <rc><c>O </c><c>   3</c></rc>
    <rc><c>O </c><c>   3</c></rc>
    <rc><c>O </c><c>   3</c></rc>
    <rc><c>O </c><c>   3</c></rc>
    <rc><c>N </c><c>   4</c></rc>
    <rc><c>N </c><c>   4</c></rc>
    <rc><c>N </c><c>   4</c></rc>
    <rc><c>N </c><c>   4</c></rc>
    <rc><c>N </c><c>   4</c></rc>
    <rc><c>N </c><c>   4</c></rc>
    <rc><c>N </c><c>   4</c></rc>
    <rc><c>N </c><c>   4</c></rc>
    <rc><c>N </c><c>   4</c></rc>
    <rc><c>N </c><c>   4</c></rc>
    <rc><c>N </c><c>   4</c></rc>
    <rc><c>N </c><c>   4</c></rc>
   </set>
  </array>
  <array name="atomtypes" >
   <dimension dim="1">type</dimension>
   <field type="int">atomspertype</field>
   <field type="string">element</field>
   <field>mass</field>
   <field>valence</field>
   <field type="string">pseudopotential</field>
   <set>
    <rc><c>  36</c><c>C </c><c>     12.01100000</c><c>      4.00000000</c><c>  PAW_PBE C 08Apr2002                   </c></rc>
    <rc><c>  30</c><c>H </c><c>      1.00000000</c><c>      1.00000000</c><c>  PAW_PBE H 15Jun2001                   </c></rc>
    <rc><c>   6</c><c>O </c><c>     16.00000000</c><c>      6.00000000</c><c>  PAW_PBE O 08Apr2002                   </c></rc>
    <rc><c>  12</c><c>N </c><c>     14.00100000</c><c>      5.00000000</c><c>  PAW_PBE N 08Apr2002                   </c></rc>
   </set>
  </array>
 </atominfo>
 <structure name="initialpos" >
  <crystal>
   <varray name="basis" >
    <v>      21.92866838       0.01600975       0.00000000 </v>
    <v>     -10.95045470      18.97902467       0.00000000 </v>
    <v>       0.00000000       0.00000000      20.00000000 </v>
   </varray>
   <i name="volume">   8327.20104154 </i>
   <varray name="rec_basis" >
    <v>       0.04558320       0.02630045       0.00000000 </v>
    <v>      -0.00003845       0.05266756       0.00000000 </v>
    <v>       0.00000000       0.00000000       0.05000000 </v>
   </varray>
  </crystal>
  <varray name="positions" >
   <v>       0.37817662       0.65124998       0.52605114 </v>
   <v>       0.33936829       0.72940115       0.52615035 </v>
   <v>       0.43868227       0.63590164       0.52320535 </v>
   <v>       0.35456527       0.80522372       0.52353692 </v>
   <v>       0.18551194       0.55201489       0.52368285 </v>
   <v>       0.60808344       0.34415969       0.46641454 </v>
   <v>       0.64691280       0.26599210       0.46598062 </v>
   <v>       0.54750733       0.35941775       0.46940158 </v>
   <v>       0.63159319       0.19010962       0.46911258 </v>
   <v>       0.80066369       0.44338117       0.46951547 </v>
   <v>       0.45672050       0.92483405       0.50381673 </v>
   <v>       0.55399395       0.04060112       0.53692555 </v>
   <v>       0.51657861       0.96726844       0.54223674 </v>
   <v>       0.61480510       0.08380486       0.58272618 </v>
   <v>       0.45602092       0.53365050       0.50305303 </v>
   <v>       0.47467875       0.43648517       0.53651863 </v>
   <v>       0.43850288       0.47370671       0.54149094 </v>
   <v>       0.45703579       0.37554816       0.58223373 </v>
   <v>       0.06594340       0.53452179       0.50372702 </v>
   <v>       0.95021891       0.51608175       0.53695149 </v>
   <v>       0.02353027       0.55220925       0.54197595 </v>
   <v>       0.90701615       0.53405150       0.58245635 </v>
   <v>       0.26132918       0.61251131       0.52611209 </v>
   <v>       0.72490067       0.38288791       0.46651877 </v>
   <v>       0.43184778       0.95499637       0.45640674 </v>
   <v>       0.46928014       0.02832951       0.45107912 </v>
   <v>       0.52922654       0.07074272       0.48939519 </v>
   <v>       0.37092079       0.91188650       0.41070888 </v>
   <v>       0.51115470       0.55861726       0.45585602 </v>
   <v>       0.54729902       0.52135635       0.45084697 </v>
   <v>       0.52987618       0.46150979       0.48940171 </v>
   <v>       0.52890828       0.61960528       0.41015604 </v>
   <v>       0.03577950       0.47905403       0.45680227 </v>
   <v>       0.96248350       0.44290654       0.45182001 </v>
   <v>       0.92009338       0.46067701       0.48997662 </v>
   <v>       0.07886947       0.46106339       0.41117286 </v>
   <v>       0.53335670       0.94198168       0.57922236 </v>
   <v>       0.61219477       0.12930737       0.60251306 </v>
   <v>       0.61484449       0.05208471       0.62515639 </v>
   <v>       0.66520647       0.10509028       0.55604370 </v>
   <v>       0.45567990       0.82887854       0.51631981 </v>
   <v>       0.39627383       0.45676947       0.57825774 </v>
   <v>       0.50506579       0.37825461       0.60226205 </v>
   <v>       0.42499617       0.37527212       0.62448042 </v>
   <v>       0.42827795       0.32517208       0.55538908 </v>
   <v>       0.36123433       0.53486286       0.51532227 </v>
   <v>       0.04877232       0.59462981       0.57858595 </v>
   <v>       0.86152822       0.48614543       0.60239764 </v>
   <v>       0.93867259       0.56601019       0.62478610 </v>
   <v>       0.88573818       0.56305973       0.55545994 </v>
   <v>       0.16180652       0.62951187       0.51560760 </v>
   <v>       0.45245959       0.05361094       0.41412491 </v>
   <v>       0.37348459       0.86645138       0.39068204 </v>
   <v>       0.32059440       0.89049859       0.43754544 </v>
   <v>       0.37072245       0.94369595       0.36843091 </v>
   <v>       0.53059847       0.16678714       0.47627108 </v>
   <v>       0.58947522       0.53823539       0.41402642 </v>
   <v>       0.48097286       0.61728443       0.39037668 </v>
   <v>       0.55808829       0.66997501       0.43693230 </v>
   <v>       0.56061432       0.61959080       0.36773154 </v>
   <v>       0.62479983       0.46049709       0.47739102 </v>
   <v>       0.93721861       0.40043699       0.41525624 </v>
   <v>       0.12420433       0.50897926       0.39105007 </v>
   <v>       0.10031166       0.43215246       0.43807914 </v>
   <v>       0.04706679       0.42898872       0.36896385 </v>
   <v>       0.82428860       0.36586726       0.47746323 </v>
   <v>       0.30764433       0.82000839       0.52991641 </v>
   <v>       0.17063951       0.49033677       0.53067162 </v>
   <v>       0.50032211       0.68268267       0.52991554 </v>
   <v>       0.67838880       0.17511340       0.46302027 </v>
   <v>       0.81549721       0.50507660       0.46274854 </v>
   <v>       0.48590469       0.31257489       0.46266797 </v>
   <v>       0.31230652       0.59597566       0.52620811 </v>
   <v>       0.39466588       0.71874665       0.52638665 </v>
   <v>       0.27194648       0.67846606       0.52618764 </v>
   <v>       0.67392837       0.39943312       0.46670695 </v>
   <v>       0.59166574       0.27668200       0.46567953 </v>
   <v>       0.71433154       0.31695031       0.46592361 </v>
   <v>       0.42437402       0.85103375       0.51240670 </v>
   <v>       0.41463464       0.56612272       0.51144491 </v>
   <v>       0.13973968       0.57604958       0.51195902 </v>
   <v>       0.56178523       0.14452089       0.48054345 </v>
   <v>       0.57140764       0.42915999       0.48131584 </v>
   <v>       0.84635614       0.41929740       0.48150749 </v>
  </varray>
 </structure>
 <calculation>
  <scstep>
   <time name="dav">  192.11  193.79</time>
   <time name="total">  192.23  193.92</time>
   <energy>
    <i name="alphaZ">     39.23125828 </i>
    <i name="ewald">  31014.95335297 </i>
    <i name="hartreedc"> -40470.99009886 </i>
    <i name="XCdc">    993.71435065 </i>
    <i name="pawpsdc">  24872.92115025 </i>
    <i name="pawaedc"> -24927.16115773 </i>
    <i name="eentropy">     -0.00000000 </i>
    <i name="bandstr">  -3537.85614918 </i>
    <i name="atom">  11440.49287763 </i>
    <i name="e_fr_energy">   -574.69441599 </i>
    <i name="e_wo_entrp">   -574.69441599 </i>
    <i name="e_0_energy">   -574.69441599 </i>
   </energy>
  </scstep>
  <scstep>
   <time name="dav">  218.01  219.89</time>
   <time name="total">  218.01  219.89</time>
   <energy>
    <i name="e_fr_energy">   -575.43869223 </i>
    <i name="e_wo_entrp">   -575.43869223 </i>
    <i name="e_0_energy">   -575.43869223 </i>
   </energy>
  </scstep>
  <scstep>
   <time name="dav">  244.12  246.25</time>
   <time name="total">  244.12  246.25</time>
   <energy>
    <i name="e_fr_energy">   -575.46026897 </i>
    <i name="e_wo_entrp">   -575.46026897 </i>
    <i name="e_0_energy">   -575.46026897 </i>
   </energy>
  </scstep>
  <scstep>
   <time name="dav">  216.29  218.19</time>
   <time name="total">  216.30  218.19</time>
   <energy>
    <i name="e_fr_energy">   -575.46070215 </i>
    <i name="e_wo_entrp">   -575.46070215 </i>
    <i name="e_0_energy">   -575.46070215 </i>
   </energy>
  </scstep>
  <scstep>
   <time name="dav">  203.47  205.26</time>
   <time name="total">  203.47  205.26</time>
   <energy>
    <i name="e_fr_energy">   -575.46072412 </i>
    <i name="e_wo_entrp">   -575.46072412 </i>
    <i name="e_0_energy">   -575.46072412 </i>
   </energy>
  </scstep>
  <scstep>
   <time name="dav">  168.82  170.29</time>
   <time name="total">  168.82  170.29</time>
   <energy>
    <i name="alphaZ">     39.23125828 </i>
    <i name="ewald">  31014.95335297 </i>
    <i name="hartreedc"> -40470.99009886 </i>
    <i name="XCdc">    993.71435065 </i>
    <i name="pawpsdc">  24872.92115025 </i>
    <i name="pawaedc"> -24927.16115773 </i>
    <i name="eentropy">     -0.00000000 </i>
    <i name="bandstr">  -3538.62245819 </i>
    <i name="atom">  11440.49287763 </i>
    <i name="e_fr_energy">   -575.46072499 </i>
    <i name="e_wo_entrp">   -575.46072499 </i>
    <i name="e_0_energy">   -575.46072499 </i>
   </energy>
  </scstep>
  <structure>
   <crystal>
    <varray name="basis" >
     <v>      21.92866838       0.01600975       0.00000000 </v>
     <v>     -10.95045470      18.97902467       0.00000000 </v>
     <v>       0.00000000       0.00000000      20.00000000 </v>
    </varray>
    <i name="volume">   8327.20104154 </i>
    <varray name="rec_basis" >
     <v>       0.04558320       0.02630045       0.00000000 </v>
     <v>      -0.00003845       0.05266756       0.00000000 </v>
     <v>       0.00000000       0.00000000       0.05000000 </v>
    </varray>
   </crystal>
   <varray name="positions" >
    <v>       0.37817662       0.65124998       0.52605114 </v>
    <v>       0.33936829       0.72940115       0.52615035 </v>
    <v>       0.43868227       0.63590164       0.52320535 </v>
    <v>       0.35456527       0.80522372       0.52353692 </v>
    <v>       0.18551194       0.55201489       0.52368285 </v>
    <v>       0.60808344       0.34415969       0.46641454 </v>
    <v>       0.64691280       0.26599210       0.46598062 </v>
    <v>       0.54750733       0.35941775       0.46940158 </v>
    <v>       0.63159319       0.19010962       0.46911258 </v>
    <v>       0.80066369       0.44338117       0.46951547 </v>
    <v>       0.45672050       0.92483405       0.50381673 </v>
    <v>       0.55399395       0.04060112       0.53692555 </v>
    <v>       0.51657861       0.96726844       0.54223674 </v>
    <v>       0.61480510       0.08380486       0.58272618 </v>
    <v>       0.45602092       0.53365050       0.50305303 </v>
    <v>       0.47467875       0.43648517       0.53651863 </v>
    <v>       0.43850288       0.47370671       0.54149094 </v>
    <v>       0.45703579       0.37554816       0.58223373 </v>
    <v>       0.06594340       0.53452179       0.50372702 </v>
    <v>       0.95021891       0.51608175       0.53695149 </v>
    <v>       0.02353027       0.55220925       0.54197595 </v>
    <v>       0.90701615       0.53405150       0.58245635 </v>
    <v>       0.26132918       0.61251131       0.52611209 </v>
    <v>       0.72490067       0.38288791       0.46651877 </v>
    <v>       0.43184778       0.95499637       0.45640674 </v>
    <v>       0.46928014       0.02832951       0.45107912 </v>
    <v>       0.52922654       0.07074272       0.48939519 </v>
    <v>       0.37092079       0.91188650       0.41070888 </v>
    <v>       0.51115470       0.55861726       0.45585602 </v>
    <v>       0.54729902       0.52135635       0.45084697 </v>
    <v>       0.52987618       0.46150979       0.48940171 </v>
    <v>       0.52890828       0.61960528       0.41015604 </v>
    <v>       0.03577950       0.47905403       0.45680227 </v>
    <v>       0.96248350       0.44290654       0.45182001 </v>
    <v>       0.92009338       0.46067701       0.48997662 </v>
    <v>       0.07886947       0.46106339       0.41117286 </v>
    <v>       0.53335670       0.94198168       0.57922236 </v>
    <v>       0.61219477       0.12930737       0.60251306 </v>
    <v>       0.61484449       0.05208471       0.62515639 </v>
    <v>       0.66520647       0.10509028       0.55604370 </v>
    <v>       0.45567990       0.82887854       0.51631981 </v>
    <v>       0.39627383       0.45676947       0.57825774 </v>
    <v>       0.50506579       0.37825461       0.60226205 </v>
    <v>       0.42499617       0.37527212       0.62448042 </v>
    <v>       0.42827795       0.32517208       0.55538908 </v>
    <v>       0.36123433       0.53486286       0.51532227 </v>
    <v>       0.04877232       0.59462981       0.57858595 </v>
    <v>       0.86152822       0.48614543       0.60239764 </v>
    <v>       0.93867259       0.56601019       0.62478610 </v>
    <v>       0.88573818       0.56305973       0.55545994 </v>
    <v>       0.16180652       0.62951187       0.51560760 </v>
    <v>       0.45245959       0.05361094       0.41412491 </v>
    <v>       0.37348459       0.86645138       0.39068204 </v>
    <v>       0.32059440       0.89049859       0.43754544 </v>
    <v>       0.37072245       0.94369595       0.36843091 </v>
    <v>       0.53059847       0.16678714       0.47627108 </v>
    <v>       0.58947522       0.53823539       0.41402642 </v>
    <v>       0.48097286       0.61728443       0.39037668 </v>
    <v>       0.55808829       0.66997501       0.43693230 </v>
    <v>       0.56061432       0.61959080       0.36773154 </v>
    <v>       0.62479983       0.46049709       0.47739102 </v>
    <v>       0.93721861       0.40043699       0.41525624 </v>
    <v>       0.12420433       0.50897926       0.39105007 </v>
    <v>       0.10031166       0.43215246       0.43807914 </v>
    <v>       0.04706679       0.42898872       0.36896385 </v>
    <v>       0.82428860       0.36586726       0.47746323 </v>
    <v>       0.30764433       0.82000839       0.52991641 </v>
    <v>       0.17063951       0.49033677       0.53067162 </v>
    <v>       0.50032211       0.68268267       0.52991554 </v>
    <v>       0.67838880       0.17511340       0.46302027 </v>
    <v>       0.81549721       0.50507660       0.46274854 </v>
    <v>       0.48590469       0.31257489       0.46266797 </v>
    <v>       0.31230652       0.59597566       0.52620811 </v>
    <v>       0.39466588       0.71874665       0.52638665 </v>
    <v>       0.27194648       0.67846606       0.52618764 </v>
    <v>       0.67392837       0.39943312       0.46670695 </v>
    <v>       0.59166574       0.27668200       0.46567953 </v>
    <v>       0.71433154       0.31695031       0.46592361 </v>
    <v>       0.42437402       0.85103375       0.51240670 </v>
    <v>       0.41463464       0.56612272       0.51144491 </v>
    <v>       0.13973968       0.57604958       0.51195902 </v>
    <v>       0.56178523       0.14452089       0.48054345 </v>
    <v>       0.57140764       0.42915999       0.48131584 </v>
    <v>       0.84635614       0.41929740       0.48150749 </v>
   </varray>
  </structure>
  <varray name="forces" >
   <v>      -0.00092024      -0.00108090      -0.00006611 </v>
   <v>       0.00623523      -0.00131121       0.00066999 </v>
   <v>       0.00179690       0.00529240      -0.00205230 </v>
   <v>      -0.00203283      -0.00088802      -0.00029157 </v>
   <v>       0.00060472       0.00549559      -0.00540417 </v>
   <v>      -0.00003545      -0.00459765       0.00317089 </v>
   <v>       0.00200947      -0.00271212       0.00117080 </v>
   <v>       0.00273957      -0.00242245      -0.00051260 </v>
   <v>      -0.00277522       0.00445012      -0.00019340 </v>
   <v>      -0.00219291       0.00568751       0.00112252 </v>
   <v>      -0.00380616      -0.00121423      -0.00339816 </v>
   <v>      -0.00086727       0.00299078      -0.00296232 </v>
   <v>       0.00477358      -0.00183258       0.00307203 </v>
   <v>       0.00011138      -0.00117993      -0.00127669 </v>
   <v>      -0.00622682      -0.00390964       0.00673033 </v>
   <v>      -0.00648634      -0.00447272       0.00594047 </v>
   <v>       0.00257615       0.00284309      -0.00208297 </v>
   <v>       0.00027681      -0.00112976       0.00063883 </v>
   <v>       0.00348023       0.00352862       0.00061609 </v>
   <v>       0.00202617       0.00124669      -0.00026163 </v>
   <v>       0.00120580      -0.00266390      -0.00295432 </v>
   <v>      -0.00099806       0.00367358      -0.00014323 </v>
   <v>      -0.00037112       0.00137970      -0.00250446 </v>
   <v>       0.00049216      -0.00171729       0.00219419 </v>
   <v>       0.00136146       0.00045243       0.00238619 </v>
   <v>      -0.00262815      -0.00109403      -0.00285894 </v>
   <v>       0.00254249       0.00267937       0.00126258 </v>
   <v>      -0.00196537      -0.00096439      -0.00252502 </v>
   <v>       0.00544248       0.00353318      -0.00365647 </v>
   <v>      -0.00040084      -0.00451654       0.00688324 </v>
   <v>       0.00204802       0.00083023      -0.00245053 </v>
   <v>       0.00039055      -0.00159599       0.00095291 </v>
   <v>       0.00245480      -0.00090251      -0.00205615 </v>
   <v>      -0.00295370      -0.00165610      -0.00000864 </v>
   <v>       0.00073071       0.00116962      -0.00087566 </v>
   <v>       0.00234727      -0.00132138       0.00022519 </v>
   <v>       0.00072086       0.00087475      -0.00118666 </v>
   <v>       0.00104816      -0.00034143      -0.00122654 </v>
   <v>      -0.00095782      -0.00123429      -0.00291698 </v>
   <v>       0.00011133       0.00025967      -0.00165789 </v>
   <v>      -0.00006839      -0.00027867      -0.00008221 </v>
   <v>      -0.00388801      -0.00043693      -0.00103923 </v>
   <v>      -0.00316399      -0.00013860       0.00197498 </v>
   <v>      -0.00412896      -0.00160928       0.00079999 </v>
   <v>      -0.00257079       0.00185912      -0.00015454 </v>
   <v>      -0.00284701       0.00035302      -0.00007900 </v>
   <v>       0.00196755       0.00179616      -0.00102003 </v>
   <v>       0.00260029       0.00171608       0.00014381 </v>
   <v>       0.00122051       0.00258614      -0.00134442 </v>
   <v>       0.00078689       0.00197954      -0.00147641 </v>
   <v>       0.00044495      -0.00084946      -0.00065249 </v>
   <v>       0.00017675      -0.00163457      -0.00065475 </v>
   <v>       0.00065723      -0.00302976      -0.00154064 </v>
   <v>       0.00005256      -0.00089165       0.00140185 </v>
   <v>       0.00031905       0.00140127       0.00153252 </v>
   <v>       0.00094717      -0.00074380       0.00121867 </v>
   <v>       0.00248848       0.00156801       0.00292517 </v>
   <v>       0.00084479      -0.00268480      -0.00113607 </v>
   <v>      -0.00001859      -0.00042732       0.00144222 </v>
   <v>       0.00134332       0.00107241      -0.00081793 </v>
   <v>      -0.00213658       0.00165012       0.00298380 </v>
   <v>      -0.00001299      -0.00074496       0.00024302 </v>
   <v>       0.00247584      -0.00094826      -0.00181979 </v>
   <v>       0.00181307      -0.00162872       0.00097257 </v>
   <v>      -0.00201443      -0.00173696       0.00134567 </v>
   <v>       0.00148029       0.00029890       0.00198197 </v>
   <v>      -0.00185997       0.00064234      -0.00055494 </v>
   <v>       0.00477166      -0.00725187       0.00140579 </v>
   <v>      -0.00639872      -0.00520851      -0.00312040 </v>
   <v>       0.00133821      -0.00225006      -0.00028398 </v>
   <v>       0.00127615      -0.00021958       0.00041868 </v>
   <v>       0.00077854      -0.00116347       0.00463132 </v>
   <v>      -0.00205208      -0.00077710       0.00590647 </v>
   <v>      -0.00140034       0.00287461      -0.00367584 </v>
   <v>      -0.00359240      -0.00588501       0.00316007 </v>
   <v>       0.00123748       0.00293871       0.00166737 </v>
   <v>      -0.00420753       0.00282132       0.00733834 </v>
   <v>      -0.00123146       0.00271189      -0.00480836 </v>
   <v>      -0.00177080       0.00135573       0.00018601 </v>
   <v>       0.00331188       0.00076835      -0.00458184 </v>
   <v>       0.00070187      -0.00048840      -0.00374828 </v>
   <v>      -0.00141817      -0.00192634       0.00067208 </v>
   <v>      -0.00176720       0.00869231      -0.00142710 </v>
   <v>       0.00160589       0.00223978      -0.00184693 </v>
  </varray>
  <varray name="stress" >
   <v>       0.01074874       0.00518443      -0.01301226 </v>
   <v>       0.00518443       0.01027930       0.00427443 </v>
   <v>      -0.01301225       0.00427442      -0.26562348 </v>
  </varray>
  <energy>
   <i name="e_fr_energy">   -577.18996874 </i>
   <i name="e_wo_entrp">   -577.18996874 </i>
   <i name="e_0_energy">     -0.00000000 </i>
  </energy>
  <time name="totalsc"> 1646.37 1664.59</time>
  <eigenvalues>
   <array>
    <dimension dim="1">band</dimension>
    <dimension dim="2">kpoint</dimension>
    <dimension dim="3">spin</dimension>
    <field>eigene</field>
    <field>occ</field>
    <set>
     <set comment="spin 1">
      <set comment="kpoint 1">
       <r>  -26.5226    1.0000 </r>
       <r>  -26.5196    1.0000 </r>
       <r>  -26.0110    1.0000 </r>
       <r>  -26.0097    1.0000 </r>
       <r>  -26.0067    1.0000 </r>
       <r>  -26.0063    1.0000 </r>
       <r>  -25.6461    1.0000 </r>
       <r>  -25.6424    1.0000 </r>
       <r>  -23.6661    1.0000 </r>
       <r>  -23.6642    1.0000 </r>
       <r>  -23.5991    1.0000 </r>
       <r>  -23.5971    1.0000 </r>
       <r>  -23.5224    1.0000 </r>
       <r>  -23.4099    1.0000 </r>
       <r>  -22.9389    1.0000 </r>
       <r>  -22.9377    1.0000 </r>
       <r>  -22.8789    1.0000 </r>
       <r>  -22.8777    1.0000 </r>
       <r>  -21.0416    1.0000 </r>
       <r>  -21.0308    1.0000 </r>
       <r>  -21.0298    1.0000 </r>
       <r>  -19.4013    1.0000 </r>
       <r>  -19.4002    1.0000 </r>
       <r>  -19.3751    1.0000 </r>
       <r>  -18.9027    1.0000 </r>
       <r>  -18.9006    1.0000 </r>
       <r>  -18.6538    1.0000 </r>
       <r>  -18.2419    1.0000 </r>
       <r>  -18.2408    1.0000 </r>
       <r>  -17.6844    1.0000 </r>
       <r>  -17.5494    1.0000 </r>
       <r>  -17.5488    1.0000 </r>
       <r>  -17.4190    1.0000 </r>
       <r>  -17.4179    1.0000 </r>
       <r>  -16.7966    1.0000 </r>
       <r>  -16.1269    1.0000 </r>
       <r>  -15.9485    1.0000 </r>
       <r>  -15.9475    1.0000 </r>
       <r>  -15.5613    1.0000 </r>
       <r>  -15.5599    1.0000 </r>
       <r>  -15.3769    1.0000 </r>
       <r>  -15.0490    1.0000 </r>
       <r>  -15.0291    1.0000 </r>
       <r>  -15.0279    1.0000 </r>
       <r>  -14.4948    1.0000 </r>
       <r>  -14.4942    1.0000 </r>
       <r>  -14.4803    1.0000 </r>
       <r>  -14.3196    1.0000 </r>
       <r>  -14.1346    1.0000 </r>
       <r>  -13.7943    1.0000 </r>
       <r>  -13.4426    1.0000 </r>
       <r>  -13.4404    1.0000 </r>
       <r>  -13.3740    1.0000 </r>
       <r>  -13.2233    1.0000 </r>
       <r>  -13.2225    1.0000 </r>
       <r>  -12.6424    1.0000 </r>
       <r>  -12.6423    1.0000 </r>
       <r>  -12.2130    1.0000 </r>
       <r>  -12.1993    1.0000 </r>
       <r>  -12.0929    1.0000 </r>
       <r>  -12.0491    1.0000 </r>
       <r>  -11.8539    1.0000 </r>
       <r>  -11.8518    1.0000 </r>
       <r>  -11.7571    1.0000 </r>
       <r>  -11.7561    1.0000 </r>
       <r>  -11.6746    1.0000 </r>
       <r>  -11.5448    1.0000 </r>
       <r>  -11.5440    1.0000 </r>
       <r>  -10.6499    1.0000 </r>
       <r>  -10.6491    1.0000 </r>
       <r>  -10.4354    1.0000 </r>
       <r>  -10.4344    1.0000 </r>
       <r>  -10.4116    1.0000 </r>
       <r>  -10.3382    1.0000 </r>
       <r>  -10.2880    1.0000 </r>
       <r>  -10.2362    1.0000 </r>
       <r>  -10.2351    1.0000 </r>
       <r>  -10.1337    1.0000 </r>
       <r>  -10.1315    1.0000 </r>
       <r>  -10.0895    1.0000 </r>
       <r>  -10.0885    1.0000 </r>
       <r>   -9.9812    1.0000 </r>
       <r>   -9.7360    1.0000 </r>
       <r>   -9.6964    1.0000 </r>
       <r>   -9.6955    1.0000 </r>
       <r>   -9.6891    1.0000 </r>
       <r>   -9.6876    1.0000 </r>
       <r>   -9.6289    1.0000 </r>
       <r>   -9.6101    1.0000 </r>
       <r>   -9.6092    1.0000 </r>
       <r>   -9.6087    1.0000 </r>
       <r>   -9.5970    1.0000 </r>
       <r>   -9.5404    1.0000 </r>
       <r>   -9.5314    1.0000 </r>
       <r>   -9.5175    1.0000 </r>
       <r>   -9.5167    1.0000 </r>
       <r>   -9.4617    1.0000 </r>
       <r>   -8.8033    1.0000 </r>
       <r>   -8.8027    1.0000 </r>
       <r>   -8.8004    1.0000 </r>
       <r>   -8.7135    1.0000 </r>
       <r>   -8.7106    1.0000 </r>
       <r>   -8.5512    1.0000 </r>
       <r>   -8.5507    1.0000 </r>
       <r>   -8.5059    1.0000 </r>
       <r>   -8.4224    1.0000 </r>
       <r>   -8.4194    1.0000 </r>
       <r>   -8.2088    1.0000 </r>
       <r>   -8.1916    1.0000 </r>
       <r>   -8.1158    1.0000 </r>
       <r>   -8.1146    1.0000 </r>
       <r>   -8.0919    1.0000 </r>
       <r>   -8.0917    1.0000 </r>
       <r>   -7.3261    1.0000 </r>
       <r>   -7.3212    1.0000 </r>
       <r>   -7.2552    1.0000 </r>
       <r>   -6.9539    1.0000 </r>
       <r>   -6.9528    1.0000 </r>
       <r>   -6.8879    1.0000 </r>
       <r>   -6.8861    1.0000 </r>
       <r>   -6.5400    1.0000 </r>
       <r>   -6.5269    1.0000 </r>
       <r>   -6.5266    1.0000 </r>
       <r>   -6.0972    1.0000 </r>
       <r>   -6.0863    1.0000 </r>
       <r>   -5.8595    1.0000 </r>
       <r>   -5.8576    1.0000 </r>
       <r>   -5.8268    1.0000 </r>
       <r>   -5.8058    1.0000 </r>
       <r>   -5.8041    1.0000 </r>
       <r>   -5.8018    1.0000 </r>
       <r>   -5.8006    1.0000 </r>
       <r>   -5.3072    1.0000 </r>
       <r>   -5.3024    1.0000 </r>
       <r>   -5.3010    1.0000 </r>
       <r>   -3.4284    0.0000 </r>
       <r>   -3.4271    0.0000 </r>
       <r>   -3.3230    0.0000 </r>
       <r>   -3.3217    0.0000 </r>
       <r>   -1.7600    0.0000 </r>
       <r>   -1.3426    0.0000 </r>
       <r>   -1.1738    0.0000 </r>
       <r>   -1.1716    0.0000 </r>
       <r>   -1.0109    0.0000 </r>
       <r>   -0.8959    0.0000 </r>
       <r>   -0.8945    0.0000 </r>
       <r>   -0.5981    0.0000 </r>
       <r>   -0.4260    0.0000 </r>
       <r>   -0.2832    0.0000 </r>
       <r>    0.0663    0.0000 </r>
       <r>    0.0670    0.0000 </r>
       <r>    0.1393    0.0000 </r>
       <r>    0.2247    0.0000 </r>
       <r>    0.2251    0.0000 </r>
       <r>    0.3781    0.0000 </r>
       <r>    0.4426    0.0000 </r>
       <r>    0.4499    0.0000 </r>
       <r>    0.4956    0.0000 </r>
       <r>    0.5257    0.0000 </r>
       <r>    0.5271    0.0000 </r>
       <r>    0.6328    0.0000 </r>
       <r>    0.7071    0.0000 </r>
       <r>    0.7101    0.0000 </r>
       <r>    0.7187    0.0000 </r>
       <r>    0.7196    0.0000 </r>
       <r>    0.8850    0.0000 </r>
       <r>    0.9294    0.0000 </r>
       <r>    0.9330    0.0000 </r>
       <r>    0.9360    0.0000 </r>
       <r>    0.9628    0.0000 </r>
       <r>    0.9636    0.0000 </r>
       <r>    1.0085    0.0000 </r>
       <r>    1.0643    0.0000 </r>
       <r>    1.0796    0.0000 </r>
       <r>    1.0810    0.0000 </r>
       <r>    1.1219    0.0000 </r>
       <r>    1.1286    0.0000 </r>
       <r>    1.1301    0.0000 </r>
       <r>    1.2450    0.0000 </r>
       <r>    1.2682    0.0000 </r>
       <r>    1.3183    0.0000 </r>
       <r>    1.3197    0.0000 </r>
       <r>    1.3448    0.0000 </r>
       <r>    1.4360    0.0000 </r>
      </set>
      <set comment="kpoint 2">
       <r>  -26.5226    1.0000 </r>
       <r>  -26.5196    1.0000 </r>
       <r>  -26.0110    1.0000 </r>
       <r>  -26.0097    1.0000 </r>
       <r>  -26.0068    1.0000 </r>
       <r>  -26.0063    1.0000 </r>
       <r>  -25.6461    1.0000 </r>
       <r>  -25.6424    1.0000 </r>
       <r>  -23.6661    1.0000 </r>
       <r>  -23.6642    1.0000 </r>
       <r>  -23.5991    1.0000 </r>
       <r>  -23.5974    1.0000 </r>
       <r>  -23.5221    1.0000 </r>
       <r>  -23.4100    1.0000 </r>
       <r>  -22.9388    1.0000 </r>
       <r>  -22.9377    1.0000 </r>
       <r>  -22.8789    1.0000 </r>
       <r>  -22.8777    1.0000 </r>
       <r>  -21.0416    1.0000 </r>
       <r>  -21.0308    1.0000 </r>
       <r>  -21.0298    1.0000 </r>
       <r>  -19.4013    1.0000 </r>
       <r>  -19.4001    1.0000 </r>
       <r>  -19.3751    1.0000 </r>
       <r>  -18.9027    1.0000 </r>
       <r>  -18.9004    1.0000 </r>
       <r>  -18.6546    1.0000 </r>
       <r>  -18.2415    1.0000 </r>
       <r>  -18.2400    1.0000 </r>
       <r>  -17.6850    1.0000 </r>
       <r>  -17.5494    1.0000 </r>
       <r>  -17.5488    1.0000 </r>
       <r>  -17.4200    1.0000 </r>
       <r>  -17.4179    1.0000 </r>
       <r>  -16.7949    1.0000 </r>
       <r>  -16.1274    1.0000 </r>
       <r>  -15.9485    1.0000 </r>
       <r>  -15.9475    1.0000 </r>
       <r>  -15.5651    1.0000 </r>
       <r>  -15.5613    1.0000 </r>
       <r>  -15.3715    1.0000 </r>
       <r>  -15.0490    1.0000 </r>
       <r>  -15.0291    1.0000 </r>
       <r>  -15.0279    1.0000 </r>
       <r>  -14.5005    1.0000 </r>
       <r>  -14.4947    1.0000 </r>
       <r>  -14.4745    1.0000 </r>
       <r>  -14.3197    1.0000 </r>
       <r>  -14.1344    1.0000 </r>
       <r>  -13.7954    1.0000 </r>
       <r>  -13.4426    1.0000 </r>
       <r>  -13.4405    1.0000 </r>
       <r>  -13.3750    1.0000 </r>
       <r>  -13.2228    1.0000 </r>
       <r>  -13.2207    1.0000 </r>
       <r>  -12.6429    1.0000 </r>
       <r>  -12.6424    1.0000 </r>
       <r>  -12.2129    1.0000 </r>
       <r>  -12.1992    1.0000 </r>
       <r>  -12.0931    1.0000 </r>
       <r>  -12.0497    1.0000 </r>
       <r>  -11.8539    1.0000 </r>
       <r>  -11.8516    1.0000 </r>
       <r>  -11.7568    1.0000 </r>
       <r>  -11.7558    1.0000 </r>
       <r>  -11.6747    1.0000 </r>
       <r>  -11.5449    1.0000 </r>
       <r>  -11.5441    1.0000 </r>
       <r>  -10.6499    1.0000 </r>
       <r>  -10.6488    1.0000 </r>
       <r>  -10.4355    1.0000 </r>
       <r>  -10.4344    1.0000 </r>
       <r>  -10.4115    1.0000 </r>
       <r>  -10.3382    1.0000 </r>
       <r>  -10.2890    1.0000 </r>
       <r>  -10.2362    1.0000 </r>
       <r>  -10.2344    1.0000 </r>
       <r>  -10.1339    1.0000 </r>
       <r>  -10.1322    1.0000 </r>
       <r>  -10.0894    1.0000 </r>
       <r>  -10.0884    1.0000 </r>
       <r>   -9.9802    1.0000 </r>
       <r>   -9.7360    1.0000 </r>
       <r>   -9.6966    1.0000 </r>
       <r>   -9.6957    1.0000 </r>
       <r>   -9.6889    1.0000 </r>
       <r>   -9.6876    1.0000 </r>
       <r>   -9.6289    1.0000 </r>
       <r>   -9.6101    1.0000 </r>
       <r>   -9.6094    1.0000 </r>
       <r>   -9.6087    1.0000 </r>
       <r>   -9.5967    1.0000 </r>
       <r>   -9.5404    1.0000 </r>
       <r>   -9.5314    1.0000 </r>
       <r>   -9.5175    1.0000 </r>
       <r>   -9.5167    1.0000 </r>
       <r>   -9.4619    1.0000 </r>
       <r>   -8.8033    1.0000 </r>
       <r>   -8.8027    1.0000 </r>
       <r>   -8.8004    1.0000 </r>
       <r>   -8.7133    1.0000 </r>
       <r>   -8.7106    1.0000 </r>
       <r>   -8.5515    1.0000 </r>
       <r>   -8.5511    1.0000 </r>
       <r>   -8.5054    1.0000 </r>
       <r>   -8.4223    1.0000 </r>
       <r>   -8.4194    1.0000 </r>
       <r>   -8.2088    1.0000 </r>
       <r>   -8.1917    1.0000 </r>
       <r>   -8.1158    1.0000 </r>
       <r>   -8.1146    1.0000 </r>
       <r>   -8.0919    1.0000 </r>
       <r>   -8.0917    1.0000 </r>
       <r>   -7.3260    1.0000 </r>
       <r>   -7.3211    1.0000 </r>
       <r>   -7.2553    1.0000 </r>
       <r>   -6.9538    1.0000 </r>
       <r>   -6.9528    1.0000 </r>
       <r>   -6.8880    1.0000 </r>
       <r>   -6.8862    1.0000 </r>
       <r>   -6.5400    1.0000 </r>
       <r>   -6.5270    1.0000 </r>
       <r>   -6.5266    1.0000 </r>
       <r>   -6.0972    1.0000 </r>
       <r>   -6.0863    1.0000 </r>
       <r>   -5.8595    1.0000 </r>
       <r>   -5.8576    1.0000 </r>
       <r>   -5.8269    1.0000 </r>
       <r>   -5.8058    1.0000 </r>
       <r>   -5.8040    1.0000 </r>
       <r>   -5.8018    1.0000 </r>
       <r>   -5.8006    1.0000 </r>
       <r>   -5.3072    1.0000 </r>
       <r>   -5.3024    1.0000 </r>
       <r>   -5.3010    1.0000 </r>
       <r>   -3.4283    0.0000 </r>
       <r>   -3.4271    0.0000 </r>
       <r>   -3.3232    0.0000 </r>
       <r>   -3.3217    0.0000 </r>
       <r>   -1.7596    0.0000 </r>
       <r>   -1.3444    0.0000 </r>
       <r>   -1.1731    0.0000 </r>
       <r>   -1.1707    0.0000 </r>
       <r>   -1.0109    0.0000 </r>
       <r>   -0.8958    0.0000 </r>
       <r>   -0.8943    0.0000 </r>
       <r>   -0.5985    0.0000 </r>
       <r>   -0.4259    0.0000 </r>
       <r>   -0.2835    0.0000 </r>
       <r>    0.0663    0.0000 </r>
       <r>    0.0672    0.0000 </r>
       <r>    0.1395    0.0000 </r>
       <r>    0.2248    0.0000 </r>
       <r>    0.2252    0.0000 </r>
       <r>    0.3779    0.0000 </r>
       <r>    0.4429    0.0000 </r>
       <r>    0.4498    0.0000 </r>
       <r>    0.4937    0.0000 </r>
       <r>    0.5263    0.0000 </r>
       <r>    0.5288    0.0000 </r>
       <r>    0.6330    0.0000 </r>
       <r>    0.7063    0.0000 </r>
       <r>    0.7094    0.0000 </r>
       <r>    0.7192    0.0000 </r>
       <r>    0.7206    0.0000 </r>
       <r>    0.8840    0.0000 </r>
       <r>    0.9166    0.0000 </r>
       <r>    0.9344    0.0000 </r>
       <r>    0.9458    0.0000 </r>
       <r>    0.9606    0.0000 </r>
       <r>    0.9642    0.0000 </r>
       <r>    1.0110    0.0000 </r>
       <r>    1.0629    0.0000 </r>
       <r>    1.0814    0.0000 </r>
       <r>    1.0814    0.0000 </r>
       <r>    1.1215    0.0000 </r>
       <r>    1.1289    0.0000 </r>
       <r>    1.1313    0.0000 </r>
       <r>    1.2471    0.0000 </r>
       <r>    1.2669    0.0000 </r>
       <r>    1.3178    0.0000 </r>
       <r>    1.3189    0.0000 </r>
       <r>    1.3443    0.0000 </r>
       <r>    1.4363    0.0000 </r>
      </set>
      <set comment="kpoint 3">
       <r>  -26.5226    1.0000 </r>
       <r>  -26.5196    1.0000 </r>
       <r>  -26.0110    1.0000 </r>
       <r>  -26.0097    1.0000 </r>
       <r>  -26.0068    1.0000 </r>
       <r>  -26.0063    1.0000 </r>
       <r>  -25.6461    1.0000 </r>
       <r>  -25.6424    1.0000 </r>
       <r>  -23.6661    1.0000 </r>
       <r>  -23.6640    1.0000 </r>
       <r>  -23.5991    1.0000 </r>
       <r>  -23.5981    1.0000 </r>
       <r>  -23.5212    1.0000 </r>
       <r>  -23.4104    1.0000 </r>
       <r>  -22.9386    1.0000 </r>
       <r>  -22.9376    1.0000 </r>
       <r>  -22.8792    1.0000 </r>
       <r>  -22.8778    1.0000 </r>
       <r>  -21.0416    1.0000 </r>
       <r>  -21.0308    1.0000 </r>
       <r>  -21.0298    1.0000 </r>
       <r>  -19.4013    1.0000 </r>
       <r>  -19.4000    1.0000 </r>
       <r>  -19.3752    1.0000 </r>
       <r>  -18.9026    1.0000 </r>
       <r>  -18.8999    1.0000 </r>
       <r>  -18.6569    1.0000 </r>
       <r>  -18.2413    1.0000 </r>
       <r>  -18.2366    1.0000 </r>
       <r>  -17.6867    1.0000 </r>
       <r>  -17.5494    1.0000 </r>
       <r>  -17.5487    1.0000 </r>
       <r>  -17.4228    1.0000 </r>
       <r>  -17.4179    1.0000 </r>
       <r>  -16.7899    1.0000 </r>
       <r>  -16.1288    1.0000 </r>
       <r>  -15.9485    1.0000 </r>
       <r>  -15.9473    1.0000 </r>
       <r>  -15.5790    1.0000 </r>
       <r>  -15.5612    1.0000 </r>
       <r>  -15.3568    1.0000 </r>
       <r>  -15.0490    1.0000 </r>
       <r>  -15.0290    1.0000 </r>
       <r>  -15.0280    1.0000 </r>
       <r>  -14.5112    1.0000 </r>
       <r>  -14.4947    1.0000 </r>
       <r>  -14.4653    1.0000 </r>
       <r>  -14.3197    1.0000 </r>
       <r>  -14.1338    1.0000 </r>
       <r>  -13.7986    1.0000 </r>
       <r>  -13.4427    1.0000 </r>
       <r>  -13.4407    1.0000 </r>
       <r>  -13.3779    1.0000 </r>
       <r>  -13.2224    1.0000 </r>
       <r>  -13.2140    1.0000 </r>
       <r>  -12.6445    1.0000 </r>
       <r>  -12.6425    1.0000 </r>
       <r>  -12.2126    1.0000 </r>
       <r>  -12.1989    1.0000 </r>
       <r>  -12.0938    1.0000 </r>
       <r>  -12.0516    1.0000 </r>
       <r>  -11.8540    1.0000 </r>
       <r>  -11.8510    1.0000 </r>
       <r>  -11.7565    1.0000 </r>
       <r>  -11.7540    1.0000 </r>
       <r>  -11.6751    1.0000 </r>
       <r>  -11.5454    1.0000 </r>
       <r>  -11.5442    1.0000 </r>
       <r>  -10.6499    1.0000 </r>
       <r>  -10.6479    1.0000 </r>
       <r>  -10.4360    1.0000 </r>
       <r>  -10.4346    1.0000 </r>
       <r>  -10.4111    1.0000 </r>
       <r>  -10.3380    1.0000 </r>
       <r>  -10.2919    1.0000 </r>
       <r>  -10.2364    1.0000 </r>
       <r>  -10.2325    1.0000 </r>
       <r>  -10.1350    1.0000 </r>
       <r>  -10.1335    1.0000 </r>
       <r>  -10.0889    1.0000 </r>
       <r>  -10.0882    1.0000 </r>
       <r>   -9.9770    1.0000 </r>
       <r>   -9.7361    1.0000 </r>
       <r>   -9.6975    1.0000 </r>
       <r>   -9.6964    1.0000 </r>
       <r>   -9.6884    1.0000 </r>
       <r>   -9.6876    1.0000 </r>
       <r>   -9.6289    1.0000 </r>
       <r>   -9.6107    1.0000 </r>
       <r>   -9.6093    1.0000 </r>
       <r>   -9.6087    1.0000 </r>
       <r>   -9.5959    1.0000 </r>
       <r>   -9.5404    1.0000 </r>
       <r>   -9.5314    1.0000 </r>
       <r>   -9.5175    1.0000 </r>
       <r>   -9.5166    1.0000 </r>
       <r>   -9.4624    1.0000 </r>
       <r>   -8.8034    1.0000 </r>
       <r>   -8.8027    1.0000 </r>
       <r>   -8.8004    1.0000 </r>
       <r>   -8.7127    1.0000 </r>
       <r>   -8.7104    1.0000 </r>
       <r>   -8.5531    1.0000 </r>
       <r>   -8.5513    1.0000 </r>
       <r>   -8.5039    1.0000 </r>
       <r>   -8.4222    1.0000 </r>
       <r>   -8.4196    1.0000 </r>
       <r>   -8.2089    1.0000 </r>
       <r>   -8.1921    1.0000 </r>
       <r>   -8.1157    1.0000 </r>
       <r>   -8.1144    1.0000 </r>
       <r>   -8.0919    1.0000 </r>
       <r>   -8.0916    1.0000 </r>
       <r>   -7.3258    1.0000 </r>
       <r>   -7.3211    1.0000 </r>
       <r>   -7.2557    1.0000 </r>
       <r>   -6.9536    1.0000 </r>
       <r>   -6.9525    1.0000 </r>
       <r>   -6.8881    1.0000 </r>
       <r>   -6.8864    1.0000 </r>
       <r>   -6.5399    1.0000 </r>
       <r>   -6.5270    1.0000 </r>
       <r>   -6.5266    1.0000 </r>
       <r>   -6.0972    1.0000 </r>
       <r>   -6.0863    1.0000 </r>
       <r>   -5.8594    1.0000 </r>
       <r>   -5.8575    1.0000 </r>
       <r>   -5.8271    1.0000 </r>
       <r>   -5.8058    1.0000 </r>
       <r>   -5.8040    1.0000 </r>
       <r>   -5.8018    1.0000 </r>
       <r>   -5.8006    1.0000 </r>
       <r>   -5.3072    1.0000 </r>
       <r>   -5.3024    1.0000 </r>
       <r>   -5.3010    1.0000 </r>
       <r>   -3.4280    0.0000 </r>
       <r>   -3.4270    0.0000 </r>
       <r>   -3.3237    0.0000 </r>
       <r>   -3.3217    0.0000 </r>
       <r>   -1.7584    0.0000 </r>
       <r>   -1.3497    0.0000 </r>
       <r>   -1.1726    0.0000 </r>
       <r>   -1.1667    0.0000 </r>
       <r>   -1.0110    0.0000 </r>
       <r>   -0.8956    0.0000 </r>
       <r>   -0.8936    0.0000 </r>
       <r>   -0.5999    0.0000 </r>
       <r>   -0.4254    0.0000 </r>
       <r>   -0.2846    0.0000 </r>
       <r>    0.0659    0.0000 </r>
       <r>    0.0682    0.0000 </r>
       <r>    0.1400    0.0000 </r>
       <r>    0.2250    0.0000 </r>
       <r>    0.2256    0.0000 </r>
       <r>    0.3773    0.0000 </r>
       <r>    0.4438    0.0000 </r>
       <r>    0.4497    0.0000 </r>
       <r>    0.4889    0.0000 </r>
       <r>    0.5273    0.0000 </r>
       <r>    0.5337    0.0000 </r>
       <r>    0.6334    0.0000 </r>
       <r>    0.7043    0.0000 </r>
       <r>    0.7078    0.0000 </r>
       <r>    0.7202    0.0000 </r>
       <r>    0.7229    0.0000 </r>
       <r>    0.8808    0.0000 </r>
       <r>    0.9019    0.0000 </r>
       <r>    0.9319    0.0000 </r>
       <r>    0.9551    0.0000 </r>
       <r>    0.9563    0.0000 </r>
       <r>    0.9676    0.0000 </r>
       <r>    1.0174    0.0000 </r>
       <r>    1.0600    0.0000 </r>
       <r>    1.0826    0.0000 </r>
       <r>    1.0852    0.0000 </r>
       <r>    1.1204    0.0000 </r>
       <r>    1.1293    0.0000 </r>
       <r>    1.1354    0.0000 </r>
       <r>    1.2530    0.0000 </r>
       <r>    1.2635    0.0000 </r>
       <r>    1.3126    0.0000 </r>
       <r>    1.3200    0.0000 </r>
       <r>    1.3429    0.0000 </r>
       <r>    1.4381    0.0000 </r>
      </set>
      <set comment="kpoint 4">
       <r>  -26.5226    1.0000 </r>
       <r>  -26.5196    1.0000 </r>
       <r>  -26.0110    1.0000 </r>
       <r>  -26.0097    1.0000 </r>
       <r>  -26.0068    1.0000 </r>
       <r>  -26.0063    1.0000 </r>
       <r>  -25.6461    1.0000 </r>
       <r>  -25.6425    1.0000 </r>
       <r>  -23.6661    1.0000 </r>
       <r>  -23.6637    1.0000 </r>
       <r>  -23.5992    1.0000 </r>
       <r>  -23.5990    1.0000 </r>
       <r>  -23.5198    1.0000 </r>
       <r>  -23.4111    1.0000 </r>
       <r>  -22.9384    1.0000 </r>
       <r>  -22.9373    1.0000 </r>
       <r>  -22.8796    1.0000 </r>
       <r>  -22.8778    1.0000 </r>
       <r>  -21.0415    1.0000 </r>
       <r>  -21.0308    1.0000 </r>
       <r>  -21.0299    1.0000 </r>
       <r>  -19.4013    1.0000 </r>
       <r>  -19.3998    1.0000 </r>
       <r>  -19.3754    1.0000 </r>
       <r>  -18.9025    1.0000 </r>
       <r>  -18.8989    1.0000 </r>
       <r>  -18.6608    1.0000 </r>
       <r>  -18.2413    1.0000 </r>
       <r>  -18.2308    1.0000 </r>
       <r>  -17.6895    1.0000 </r>
       <r>  -17.5494    1.0000 </r>
       <r>  -17.5486    1.0000 </r>
       <r>  -17.4274    1.0000 </r>
       <r>  -17.4179    1.0000 </r>
       <r>  -16.7818    1.0000 </r>
       <r>  -16.1312    1.0000 </r>
       <r>  -15.9485    1.0000 </r>
       <r>  -15.9470    1.0000 </r>
       <r>  -15.5985    1.0000 </r>
       <r>  -15.5612    1.0000 </r>
       <r>  -15.3358    1.0000 </r>
       <r>  -15.0489    1.0000 </r>
       <r>  -15.0289    1.0000 </r>
       <r>  -15.0281    1.0000 </r>
       <r>  -14.5230    1.0000 </r>
       <r>  -14.4946    1.0000 </r>
       <r>  -14.4559    1.0000 </r>
       <r>  -14.3198    1.0000 </r>
       <r>  -14.1328    1.0000 </r>
       <r>  -13.8039    1.0000 </r>
       <r>  -13.4429    1.0000 </r>
       <r>  -13.4410    1.0000 </r>
       <r>  -13.3820    1.0000 </r>
       <r>  -13.2219    1.0000 </r>
       <r>  -13.2036    1.0000 </r>
       <r>  -12.6472    1.0000 </r>
       <r>  -12.6426    1.0000 </r>
       <r>  -12.2121    1.0000 </r>
       <r>  -12.1983    1.0000 </r>
       <r>  -12.0950    1.0000 </r>
       <r>  -12.0546    1.0000 </r>
       <r>  -11.8542    1.0000 </r>
       <r>  -11.8498    1.0000 </r>
       <r>  -11.7563    1.0000 </r>
       <r>  -11.7509    1.0000 </r>
       <r>  -11.6756    1.0000 </r>
       <r>  -11.5462    1.0000 </r>
       <r>  -11.5443    1.0000 </r>
       <r>  -10.6499    1.0000 </r>
       <r>  -10.6463    1.0000 </r>
       <r>  -10.4369    1.0000 </r>
       <r>  -10.4346    1.0000 </r>
       <r>  -10.4104    1.0000 </r>
       <r>  -10.3378    1.0000 </r>
       <r>  -10.2963    1.0000 </r>
       <r>  -10.2366    1.0000 </r>
       <r>  -10.2299    1.0000 </r>
       <r>  -10.1382    1.0000 </r>
       <r>  -10.1341    1.0000 </r>
       <r>  -10.0884    1.0000 </r>
       <r>  -10.0878    1.0000 </r>
       <r>   -9.9719    1.0000 </r>
       <r>   -9.7361    1.0000 </r>
       <r>   -9.6987    1.0000 </r>
       <r>   -9.6973    1.0000 </r>
       <r>   -9.6881    1.0000 </r>
       <r>   -9.6873    1.0000 </r>
       <r>   -9.6289    1.0000 </r>
       <r>   -9.6119    1.0000 </r>
       <r>   -9.6089    1.0000 </r>
       <r>   -9.6087    1.0000 </r>
       <r>   -9.5948    1.0000 </r>
       <r>   -9.5404    1.0000 </r>
       <r>   -9.5315    1.0000 </r>
       <r>   -9.5175    1.0000 </r>
       <r>   -9.5165    1.0000 </r>
       <r>   -9.4633    1.0000 </r>
       <r>   -8.8034    1.0000 </r>
       <r>   -8.8027    1.0000 </r>
       <r>   -8.8005    1.0000 </r>
       <r>   -8.7119    1.0000 </r>
       <r>   -8.7099    1.0000 </r>
       <r>   -8.5558    1.0000 </r>
       <r>   -8.5514    1.0000 </r>
       <r>   -8.5017    1.0000 </r>
       <r>   -8.4221    1.0000 </r>
       <r>   -8.4198    1.0000 </r>
       <r>   -8.2091    1.0000 </r>
       <r>   -8.1926    1.0000 </r>
       <r>   -8.1157    1.0000 </r>
       <r>   -8.1140    1.0000 </r>
       <r>   -8.0920    1.0000 </r>
       <r>   -8.0915    1.0000 </r>
       <r>   -7.3255    1.0000 </r>
       <r>   -7.3210    1.0000 </r>
       <r>   -7.2563    1.0000 </r>
       <r>   -6.9533    1.0000 </r>
       <r>   -6.9520    1.0000 </r>
       <r>   -6.8884    1.0000 </r>
       <r>   -6.8868    1.0000 </r>
       <r>   -6.5398    1.0000 </r>
       <r>   -6.5271    1.0000 </r>
       <r>   -6.5266    1.0000 </r>
       <r>   -6.0971    1.0000 </r>
       <r>   -6.0864    1.0000 </r>
       <r>   -5.8593    1.0000 </r>
       <r>   -5.8574    1.0000 </r>
       <r>   -5.8274    1.0000 </r>
       <r>   -5.8058    1.0000 </r>
       <r>   -5.8040    1.0000 </r>
       <r>   -5.8018    1.0000 </r>
       <r>   -5.8006    1.0000 </r>
       <r>   -5.3072    1.0000 </r>
       <r>   -5.3024    1.0000 </r>
       <r>   -5.3010    1.0000 </r>
       <r>   -3.4278    0.0000 </r>
       <r>   -3.4265    0.0000 </r>
       <r>   -3.3245    0.0000 </r>
       <r>   -3.3217    0.0000 </r>
       <r>   -1.7563    0.0000 </r>
       <r>   -1.3579    0.0000 </r>
       <r>   -1.1725    0.0000 </r>
       <r>   -1.1599    0.0000 </r>
       <r>   -1.0112    0.0000 </r>
       <r>   -0.8955    0.0000 </r>
       <r>   -0.8921    0.0000 </r>
       <r>   -0.6022    0.0000 </r>
       <r>   -0.4247    0.0000 </r>
       <r>   -0.2863    0.0000 </r>
       <r>    0.0650    0.0000 </r>
       <r>    0.0699    0.0000 </r>
[...]
       <r>   -26.2798     0.0000     4.0000 </r>
       <r>   -26.1771     0.0000     4.0000 </r>
       <r>   -26.0744     0.0000     4.0000 </r>
       <r>   -25.9717    77.8950    12.0000 </r>
       <r>   -25.8690     0.0000    12.0000 </r>
       <r>   -25.7663     0.0000    12.0000 </r>
       <r>   -25.6636     0.1467    12.0151 </r>
       <r>   -25.5609     0.0000    16.0000 </r>
       <r>   -25.4582     0.0000    16.0000 </r>
       <r>   -25.3555     0.0000    16.0000 </r>
       <r>   -25.2528     0.0000    16.0000 </r>
       <r>   -25.1501     0.0000    16.0000 </r>
       <r>   -25.0474     0.0000    16.0000 </r>
       <r>   -24.9447     0.0000    16.0000 </r>
       <r>   -24.8420     0.0000    16.0000 </r>
       <r>   -24.7393     0.0000    16.0000 </r>
       <r>   -24.6366     0.0000    16.0000 </r>
       <r>   -24.5339     0.0000    16.0000 </r>
       <r>   -24.4312     0.0000    16.0000 </r>
       <r>   -24.3285     0.0000    16.0000 </r>
       <r>   -24.2258     0.0000    16.0000 </r>
       <r>   -24.1231     0.0000    16.0000 </r>
       <r>   -24.0204     0.0000    16.0000 </r>
       <r>   -23.9177     0.0000    16.0000 </r>
       <r>   -23.8150     0.0000    16.0000 </r>
       <r>   -23.7123     0.0000    16.0000 </r>
       <r>   -23.6096    54.5629    21.6037 </r>
       <r>   -23.5069     5.0224    24.5158 </r>
       <r>   -23.4042    29.1673    27.9289 </r>
       <r>   -23.3015     0.0000    28.0000 </r>
       <r>   -23.1988     0.0000    28.0000 </r>
       <r>   -23.0961     0.0000    28.0000 </r>
       <r>   -22.9934     0.0000    28.0000 </r>
       <r>   -22.8907    50.6490    33.2018 </r>
       <r>   -22.7880     0.0000    36.0000 </r>
       <r>   -22.6853     0.0000    36.0000 </r>
       <r>   -22.5825     0.0000    36.0000 </r>
       <r>   -22.4798     0.0000    36.0000 </r>
       <r>   -22.3771     0.0000    36.0000 </r>
       <r>   -22.2744     0.0000    36.0000 </r>
       <r>   -22.1717     0.0000    36.0000 </r>
       <r>   -22.0690     0.0000    36.0000 </r>
       <r>   -21.9663     0.0000    36.0000 </r>
       <r>   -21.8636     0.0000    36.0000 </r>
       <r>   -21.7609     0.0000    36.0000 </r>
       <r>   -21.6582     0.0000    36.0000 </r>
       <r>   -21.5555     0.0000    36.0000 </r>
       <r>   -21.4528     0.0000    36.0000 </r>
       <r>   -21.3501     0.0000    36.0000 </r>
       <r>   -21.2474     0.0000    36.0000 </r>
       <r>   -21.1447     0.0000    36.0000 </r>
       <r>   -21.0420     9.5675    36.9826 </r>
       <r>   -20.9393     0.0000    42.0000 </r>
       <r>   -20.8366     0.0000    42.0000 </r>
       <r>   -20.7339     0.0000    42.0000 </r>
       <r>   -20.6312     0.0000    42.0000 </r>
       <r>   -20.5285     0.0000    42.0000 </r>
       <r>   -20.4258     0.0000    42.0000 </r>
       <r>   -20.3231     0.0000    42.0000 </r>
       <r>   -20.2204     0.0000    42.0000 </r>
       <r>   -20.1177     0.0000    42.0000 </r>
       <r>   -20.0150     0.0000    42.0000 </r>
       <r>   -19.9123     0.0000    42.0000 </r>
       <r>   -19.8096     0.0000    42.0000 </r>
       <r>   -19.7069     0.0000    42.0000 </r>
       <r>   -19.6042     0.0000    42.0000 </r>
       <r>   -19.5015     0.0000    42.0000 </r>
       <r>   -19.3988    17.5551    43.8030 </r>
       <r>   -19.2961     3.5685    48.0000 </r>
       <r>   -19.1934     0.0000    48.0000 </r>
       <r>   -19.0907     0.0000    48.0000 </r>
       <r>   -18.9880     0.0000    48.0000 </r>
       <r>   -18.8853    24.7238    50.5392 </r>
       <r>   -18.7826    16.4573    52.5569 </r>
       <r>   -18.6799     5.4505    53.5931 </r>
       <r>   -18.5772     1.6224    54.0000 </r>
       <r>   -18.4745     0.0000    54.0000 </r>
       <r>   -18.3718     0.0000    54.0000 </r>
       <r>   -18.2690     0.0008    54.0001 </r>
       <r>   -18.1663    24.9662    56.5642 </r>
       <r>   -18.0636     3.0410    56.9457 </r>
       <r>   -17.9609     7.5364    57.8073 </r>
       <r>   -17.8582     6.1715    58.5672 </r>
       <r>   -17.7555     3.4844    59.2912 </r>
       <r>   -17.6528     5.8419    60.0000 </r>
       <r>   -17.5501    12.7013    61.3044 </r>
       <r>   -17.4474    12.6902    65.6034 </r>
       <r>   -17.3447    21.4205    68.0000 </r>
       <r>   -17.2420     0.0000    68.0000 </r>
       <r>   -17.1393     0.0000    68.0000 </r>
       <r>   -17.0366     0.0000    68.0000 </r>
       <r>   -16.9339     0.0000    68.0000 </r>
       <r>   -16.8312     0.0000    68.0000 </r>
       <r>   -16.7285     4.3591    68.4477 </r>
       <r>   -16.6258     2.4010    68.7466 </r>
       <r>   -16.5231     2.3658    69.0430 </r>
       <r>   -16.4204     4.9834    69.8118 </r>
       <r>   -16.3177     4.5733    70.4030 </r>
       <r>   -16.2150     5.6171    71.1769 </r>
       <r>   -16.1123     7.1091    71.9968 </r>
       <r>   -16.0096     0.0000    72.0000 </r>
       <r>   -15.9069    37.7247    75.8744 </r>
       <r>   -15.8042     8.4290    77.1990 </r>
       <r>   -15.7015     2.3422    77.5072 </r>
       <r>   -15.5988     2.0901    77.7813 </r>
       <r>   -15.4961    20.7720    80.0000 </r>
       <r>   -15.3934     0.0068    80.0007 </r>
       <r>   -15.2907     2.2463    80.3307 </r>
       <r>   -15.1880     1.9187    80.5637 </r>
       <r>   -15.0853     1.8651    80.8249 </r>
       <r>   -14.9826    58.6968    86.9616 </r>
       <r>   -14.8799     6.9700    87.7492 </r>
       <r>   -14.7772     4.8568    88.3655 </r>
       <r>   -14.6745     6.2977    89.1468 </r>
       <r>   -14.5718     3.1108    89.5528 </r>
       <r>   -14.4691    24.2993    92.1290 </r>
       <r>   -14.3664     8.5140    93.1744 </r>
       <r>   -14.2637    18.4996    96.0000 </r>
       <r>   -14.1610     0.0002    96.0000 </r>
       <r>   -14.0583    15.2490    97.5661 </r>
       <r>   -13.9555    10.5559    98.9841 </r>
       <r>   -13.8528     3.3422    99.4766 </r>
       <r>   -13.7501     3.8947   100.0000 </r>
       <r>   -13.6474     0.0000   100.0000 </r>
       <r>   -13.5447     0.0000   100.0000 </r>
       <r>   -13.4420    26.2038   102.6912 </r>
       <r>   -13.3393     7.7893   106.0000 </r>
       <r>   -13.2366     0.1048   106.0108 </r>
       <r>   -13.1339    16.0747   108.4843 </r>
       <r>   -13.0312     2.2142   108.7941 </r>
       <r>   -12.9285     5.4134   109.4226 </r>
       <r>   -12.8258     5.9141   110.2407 </r>
       <r>   -12.7231     7.4000   111.1933 </r>
       <r>   -12.6204    26.2821   113.9993 </r>
       <r>   -12.5177     0.0000   114.0000 </r>
       <r>   -12.4150     0.0000   114.0000 </r>
       <r>   -12.3123     0.0000   114.0000 </r>
       <r>   -12.2096     3.7668   114.3869 </r>
       <r>   -12.1069    46.1721   120.7088 </r>
       <r>   -12.0042     5.5174   122.0000 </r>
       <r>   -11.9015     0.0000   122.0000 </r>
       <r>   -11.7988    33.1002   125.3995 </r>
       <r>   -11.6961    41.2353   130.0017 </r>
       <r>   -11.5934    18.5720   132.6407 </r>
       <r>   -11.4907    27.5874   136.0000 </r>
       <r>   -11.3880     0.0000   136.0000 </r>
       <r>   -11.2853     0.0000   136.0000 </r>
       <r>   -11.1826     0.0000   136.0000 </r>
       <r>   -11.0799     0.0000   136.0000 </r>
       <r>   -10.9772     0.0000   136.0000 </r>
       <r>   -10.8745     0.0000   136.0000 </r>
       <r>   -10.7718     0.0000   136.0000 </r>
       <r>   -10.6691     0.0663   136.0068 </r>
       <r>   -10.5664    12.9638   139.5315 </r>
       <r>   -10.4637    13.4882   141.2853 </r>
       <r>   -10.3610    49.9100   146.7593 </r>
       <r>   -10.2583    36.8617   151.1194 </r>
       <r>   -10.1556    30.9734   155.1812 </r>
       <r>   -10.0529    46.8803   161.9482 </r>
       <r>    -9.9502     3.8376   162.3941 </r>
       <r>    -9.8475     4.7650   163.0560 </r>
       <r>    -9.7447    16.1814   165.1952 </r>
       <r>    -9.6420    65.7101   174.0822 </r>
       <r>    -9.5393    77.9020   185.5008 </r>
       <r>    -9.4366    37.6464   194.0000 </r>
       <r>    -9.3339     0.0000   194.0000 </r>
       <r>    -9.2312     0.0000   194.0000 </r>
       <r>    -9.1285     0.0000   194.0000 </r>
       <r>    -9.0258     0.0000   194.0000 </r>
       <r>    -8.9231     0.0000   194.0000 </r>
       <r>    -8.8204     0.4046   194.0416 </r>
       <r>    -8.7177     2.7843   200.2860 </r>
       <r>    -8.6150    22.5860   204.9197 </r>
       <r>    -8.5123    26.9660   208.0362 </r>
       <r>    -8.4096    51.3299   213.7051 </r>
       <r>    -8.3069     0.0000   214.0000 </r>
       <r>    -8.2042    25.8898   216.6589 </r>
       <r>    -8.1015    34.3357   221.5264 </r>
       <r>    -7.9988     0.0000   226.0000 </r>
       <r>    -7.8961     0.0000   226.0000 </r>
       <r>    -7.7934     0.0000   226.0000 </r>
       <r>    -7.6907     0.0000   226.0000 </r>
       <r>    -7.5880     0.0000   226.0000 </r>
       <r>    -7.4853     0.0000   226.0000 </r>
       <r>    -7.3826     0.0000   226.0000 </r>
       <r>    -7.2799    45.5769   230.6809 </r>
       <r>    -7.1772     2.9200   232.0000 </r>
       <r>    -7.0745     0.0000   232.0000 </r>
       <r>    -6.9718     0.0340   232.0035 </r>
       <r>    -6.8691    67.1348   239.9952 </r>
       <r>    -6.7664     0.0000   240.0000 </r>
       <r>    -6.6637     0.0000   240.0000 </r>
       <r>    -6.5610     0.0102   240.0010 </r>
       <r>    -6.4583    52.2517   246.0000 </r>
       <r>    -6.3556     0.0000   246.0000 </r>
       <r>    -6.2529     0.0000   246.0000 </r>
       <r>    -6.1502     0.0000   246.0000 </r>
       <r>    -6.0475    38.9475   250.0000 </r>
       <r>    -5.9448     0.0000   250.0000 </r>
       <r>    -5.8421    40.3144   254.1404 </r>
       <r>    -5.7394    77.8950   264.0000 </r>
       <r>    -5.6367     0.0000   264.0000 </r>
       <r>    -5.5340     0.0000   264.0000 </r>
       <r>    -5.4312     0.0000   264.0000 </r>
       <r>    -5.3285     0.0259   264.0027 </r>
       <r>    -5.2258    38.9443   270.0000 </r>
       <r>    -5.1231     0.0000   270.0000 </r>
       <r>    -5.0204     0.0000   270.0000 </r>
       <r>    -4.9177     0.0000   270.0000 </r>
       <r>    -4.8150     0.0000   270.0000 </r>
       <r>    -4.7123     0.0000   270.0000 </r>
       <r>    -4.6096     0.0000   270.0000 </r>
       <r>    -4.5069     0.0000   270.0000 </r>
       <r>    -4.4042     0.0000   270.0000 </r>
       <r>    -4.3015     0.0000   270.0000 </r>
       <r>    -4.1988     0.0000   270.0000 </r>
       <r>    -4.0961     0.0000   270.0000 </r>
       <r>    -3.9934     0.0000   270.0000 </r>
       <r>    -3.8907     0.0000   270.0000 </r>
       <r>    -3.7880     0.0000   270.0000 </r>
       <r>    -3.6853     0.0000   270.0000 </r>
       <r>    -3.5826     0.0000   270.0000 </r>
       <r>    -3.4799     0.0000   270.0000 </r>
       <r>    -3.3772    38.8718   273.9922 </r>
       <r>    -3.2745    29.2102   278.0000 </r>
       <r>    -3.1718     0.0000   278.0000 </r>
       <r>    -3.0691     0.0000   278.0000 </r>
       <r>    -2.9664     0.0000   278.0000 </r>
       <r>    -2.8637     0.0000   278.0000 </r>
       <r>    -2.7610     0.0000   278.0000 </r>
       <r>    -2.6583     0.0000   278.0000 </r>
       <r>    -2.5556     0.0000   278.0000 </r>
       <r>    -2.4529     0.0000   278.0000 </r>
       <r>    -2.3502     0.0000   278.0000 </r>
       <r>    -2.2475     0.0000   278.0000 </r>
       <r>    -2.1448     0.0000   278.0000 </r>
       <r>    -2.0421     0.0000   278.0000 </r>
       <r>    -1.9394     0.0000   278.0000 </r>
       <r>    -1.8367     0.0000   278.0000 </r>
       <r>    -1.7340     5.1591   278.5299 </r>
       <r>    -1.6313     9.7418   279.7338 </r>
       <r>    -1.5286    10.3058   280.9918 </r>
       <r>    -1.4259     3.1170   281.4535 </r>
       <r>    -1.3232     4.2165   281.9997 </r>
       <r>    -1.2205     0.0000   282.0000 </r>
       <r>    -1.1177    24.2248   284.4879 </r>
       <r>    -1.0150    25.8738   287.2906 </r>
       <r>    -0.9123     0.1671   288.0172 </r>
       <r>    -0.8096     8.0233   291.1240 </r>
       <r>    -0.7069    10.6545   292.6609 </r>
       <r>    -0.6042     7.1622   293.7689 </r>
       <r>    -0.5015     0.0000   294.0000 </r>
       <r>    -0.3988     9.2701   294.9521 </r>
       <r>    -0.2961    17.4839   297.5957 </r>
       <r>    -0.1934     0.0000   298.0000 </r>
       <r>    -0.0907     0.0000   298.0000 </r>
       <r>     0.0120     0.0145   298.0015 </r>
       <r>     0.1147    25.8383   301.1204 </r>
       <r>     0.2174    25.7980   304.1829 </r>
       <r>     0.3201    14.1974   308.4249 </r>
       <r>     0.4228    19.9487   311.0155 </r>
       <r>     0.5255    44.7265   316.3936 </r>
       <r>     0.6282    23.9450   320.7592 </r>
       <r>     0.7309    57.3002   327.7183 </r>
       <r>     0.8336    22.4803   332.1088 </r>
       <r>     0.9363    50.2005   338.6891 </r>
       <r>     1.0390    39.1698   343.8230 </r>
       <r>     1.1417    63.0707   351.2442 </r>
       <r>     1.2444    36.3105   355.8959 </r>
       <r>     1.3471    53.3388   362.7781 </r>
       <r>     1.4498    35.3858   367.4676 </r>
       <r>     1.5525     1.9473   368.0000 </r>
       <r>     1.6552     0.0000   368.0000 </r>
       <r>     1.7579     0.0000   368.0000 </r>
       <r>     1.8606     0.0000   368.0000 </r>
       <r>     1.9633     0.0000   368.0000 </r>
       <r>     2.0660     0.0000   368.0000 </r>
       <r>     2.1687     0.0000   368.0000 </r>
       <r>     2.2714     0.0000   368.0000 </r>
       <r>     2.3741     0.0000   368.0000 </r>
       <r>     2.4768     0.0000   368.0000 </r>
       <r>     2.5795     0.0000   368.0000 </r>
       <r>     2.6822     0.0000   368.0000 </r>
       <r>     2.7849     0.0000   368.0000 </r>
       <r>     2.8876     0.0000   368.0000 </r>
      </set>
     </set>
    </array>
   </total>
  </dos>
 </calculation>
 <structure name="finalpos" >
  <crystal>
   <varray name="basis" >
    <v>      21.92866838       0.01600975       0.00000000 </v>
    <v>     -10.95045470      18.97902467       0.00000000 </v>
    <v>       0.00000000       0.00000000      20.00000000 </v>
   </varray>
   <i name="volume">   8327.20104154 </i>
   <varray name="rec_basis" >
    <v>       0.04558320       0.02630045       0.00000000 </v>
    <v>      -0.00003845       0.05266756       0.00000000 </v>
    <v>       0.00000000       0.00000000       0.05000000 </v>
   </varray>
  </crystal>
  <varray name="positions" >
   <v>       0.37817662       0.65124998       0.52605114 </v>
   <v>       0.33936829       0.72940115       0.52615035 </v>
   <v>       0.43868227       0.63590164       0.52320535 </v>
   <v>       0.35456527       0.80522372       0.52353692 </v>
   <v>       0.18551194       0.55201489       0.52368285 </v>
   <v>       0.60808344       0.34415969       0.46641454 </v>
   <v>       0.64691280       0.26599210       0.46598062 </v>
   <v>       0.54750733       0.35941775       0.46940158 </v>
   <v>       0.63159319       0.19010962       0.46911258 </v>
   <v>       0.80066369       0.44338117       0.46951547 </v>
   <v>       0.45672050       0.92483405       0.50381673 </v>
   <v>       0.55399395       0.04060112       0.53692555 </v>
   <v>       0.51657861       0.96726844       0.54223674 </v>
   <v>       0.61480510       0.08380486       0.58272618 </v>
   <v>       0.45602092       0.53365050       0.50305303 </v>
   <v>       0.47467875       0.43648517       0.53651863 </v>
   <v>       0.43850288       0.47370671       0.54149094 </v>
   <v>       0.45703579       0.37554816       0.58223373 </v>
   <v>       0.06594340       0.53452179       0.50372702 </v>
   <v>       0.95021891       0.51608175       0.53695149 </v>
   <v>       0.02353027       0.55220925       0.54197595 </v>
   <v>       0.90701615       0.53405150       0.58245635 </v>
   <v>       0.26132918       0.61251131       0.52611209 </v>
   <v>       0.72490067       0.38288791       0.46651877 </v>
   <v>       0.43184778       0.95499637       0.45640674 </v>
   <v>       0.46928014       0.02832951       0.45107912 </v>
   <v>       0.52922654       0.07074272       0.48939519 </v>
   <v>       0.37092079       0.91188650       0.41070888 </v>
   <v>       0.51115470       0.55861726       0.45585602 </v>
   <v>       0.54729902       0.52135635       0.45084697 </v>
   <v>       0.52987618       0.46150979       0.48940171 </v>
   <v>       0.52890828       0.61960528       0.41015604 </v>
   <v>       0.03577950       0.47905403       0.45680227 </v>
   <v>       0.96248350       0.44290654       0.45182001 </v>
   <v>       0.92009338       0.46067701       0.48997662 </v>
   <v>       0.07886947       0.46106339       0.41117286 </v>
   <v>       0.53335670       0.94198168       0.57922236 </v>
   <v>       0.61219477       0.12930737       0.60251306 </v>
   <v>       0.61484449       0.05208471       0.62515639 </v>
   <v>       0.66520647       0.10509028       0.55604370 </v>
   <v>       0.45567990       0.82887854       0.51631981 </v>
   <v>       0.39627383       0.45676947       0.57825774 </v>
   <v>       0.50506579       0.37825461       0.60226205 </v>
   <v>       0.42499617       0.37527212       0.62448042 </v>
   <v>       0.42827795       0.32517208       0.55538908 </v>
   <v>       0.36123433       0.53486286       0.51532227 </v>
   <v>       0.04877232       0.59462981       0.57858595 </v>
   <v>       0.86152822       0.48614543       0.60239764 </v>
   <v>       0.93867259       0.56601019       0.62478610 </v>
   <v>       0.88573818       0.56305973       0.55545994 </v>
   <v>       0.16180652       0.62951187       0.51560760 </v>
   <v>       0.45245959       0.05361094       0.41412491 </v>
   <v>       0.37348459       0.86645138       0.39068204 </v>
   <v>       0.32059440       0.89049859       0.43754544 </v>
   <v>       0.37072245       0.94369595       0.36843091 </v>
   <v>       0.53059847       0.16678714       0.47627108 </v>
   <v>       0.58947522       0.53823539       0.41402642 </v>
   <v>       0.48097286       0.61728443       0.39037668 </v>
   <v>       0.55808829       0.66997501       0.43693230 </v>
   <v>       0.56061432       0.61959080       0.36773154 </v>
   <v>       0.62479983       0.46049709       0.47739102 </v>
   <v>       0.93721861       0.40043699       0.41525624 </v>
   <v>       0.12420433       0.50897926       0.39105007 </v>
   <v>       0.10031166       0.43215246       0.43807914 </v>
   <v>       0.04706679       0.42898872       0.36896385 </v>
   <v>       0.82428860       0.36586726       0.47746323 </v>
   <v>       0.30764433       0.82000839       0.52991641 </v>
   <v>       0.17063951       0.49033677       0.53067162 </v>
   <v>       0.50032211       0.68268267       0.52991554 </v>
   <v>       0.67838880       0.17511340       0.46302027 </v>
   <v>       0.81549721       0.50507660       0.46274854 </v>
   <v>       0.48590469       0.31257489       0.46266797 </v>
   <v>       0.31230652       0.59597566       0.52620811 </v>
   <v>       0.39466588       0.71874665       0.52638665 </v>
   <v>       0.27194648       0.67846606       0.52618764 </v>
   <v>       0.67392837       0.39943312       0.46670695 </v>
   <v>       0.59166574       0.27668200       0.46567953 </v>
   <v>       0.71433154       0.31695031       0.46592361 </v>
   <v>       0.42437402       0.85103375       0.51240670 </v>
   <v>       0.41463464       0.56612272       0.51144491 </v>
   <v>       0.13973968       0.57604958       0.51195902 </v>
   <v>       0.56178523       0.14452089       0.48054345 </v>
   <v>       0.57140764       0.42915999       0.48131584 </v>
   <v>       0.84635614       0.41929740       0.48150749 </v>
  </varray>
 </structure>
</modeling>
