<?xml version="1.0" encoding="ISO-8859-1"?>
<modeling>
 <generator>
  <i name="program" type="string">vasp </i>
  <i name="version" type="string">5.4.4.18Apr17-6-g9f103f2a35  </i>
  <i name="subversion" type="string">(build Jun 07 2020 16:50:00) complex            parallel </i>
  <i name="platform" type="string">LinuxIFC </i>
  <i name="date" type="string">2023 02 14 </i>
  <i name="time" type="string">16:12:32 </i>
 </generator>
 <incar>
  <i type="string" name="SYSTEM">Simulation for cell shape cell volume r</i>
  <i type="int" name="ISTART">     1</i>
  <i type="string" name="PREC">high</i>
  <i type="string" name="ALGO">48</i>
  <i type="int" name="ICHARG">    11</i>
  <i type="int" name="NELM">   200</i>
  <i type="int" name="IBRION">    -1</i>
  <i name="EDIFF">      0.00001000</i>
  <i name="EDIFFG">     -0.01000000</i>
  <i type="int" name="NSW">     0</i>
  <i type="int" name="ISIF">     2</i>
  <i name="ENCUT">    500.00000000</i>
  <i name="POTIM">      0.30000000</i>
  <i type="string" name="LREAL">A</i>
  <i type="int" name="ISMEAR">     0</i>
  <i name="SIGMA">      0.01000000</i>
  <i type="int" name="NWRITE">     0</i>
  <i type="logical" name="LWAVE"> F  </i>
  <i type="logical" name="LCHARG"> F  </i>
  <v type="int" name="KPOINT_BSE">    -1     0     0     0</v>
  <i type="int" name="NELM">   200</i>
  <i type="string" name="GGA">PE</i>
 </incar>
 <structure name="primitive_cell" >
  <crystal>
   <varray name="basis" >
    <v>      22.19275132      -0.00358812       0.00000000 </v>
    <v>     -11.09948509      19.23630908       0.00000000 </v>
    <v>       0.00000000       0.00000000      20.00000000 </v>
   </varray>
   <i name="volume">   8537.33594768 </i>
   <varray name="rec_basis" >
    <v>       0.04506396       0.02600222       0.00000000 </v>
    <v>       0.00000841       0.05198987       0.00000000 </v>
    <v>       0.00000000       0.00000000       0.05000000 </v>
   </varray>
  </crystal>
  <varray name="positions" >
   <v>       0.08226589       0.38672783       0.44953387 </v>
   <v>       0.04435609       0.40479424       0.45166059 </v>
   <v>       0.00344182       0.37249275       0.48762444 </v>
   <v>       0.01849605       0.39579659       0.40292497 </v>
   <v>       0.08024664       0.48051713       0.47054959 </v>
   <v>       0.18005426       0.49372079       0.44678045 </v>
   <v>       0.15270298      -0.48051529       0.46611941 </v>
   <v>       0.04577183      -0.48422027       0.49419503 </v>
   <v>      -0.06699365       0.43420352       0.45137980 </v>
   <v>       0.19048499      -0.41054441       0.48556588 </v>
   <v>       0.28058779      -0.45957462       0.48492483 </v>
   <v>      -0.03137864       0.48189513       0.49905214 </v>
   <v>       0.08138147      -0.41705888      -0.48669196 </v>
   <v>       0.15054203      -0.38209886      -0.49030872 </v>
   <v>       0.30709913      -0.40301058       0.48429469 </v>
   <v>       0.26742606      -0.36975619       0.48364736 </v>
   <v>      -0.13626938       0.40084649       0.45145109 </v>
   <v>       0.33975774      -0.49686577      -0.46775314 </v>
   <v>      -0.16234478       0.36292881       0.41140676 </v>
   <v>      -0.06556449       0.49854553      -0.45019169 </v>
   <v>       0.01310900      -0.45687683      -0.37276356 </v>
   <v>       0.17573869      -0.32866725      -0.47170183 </v>
   <v>       0.39298049      -0.46892875      -0.48705650 </v>
   <v>      -0.17559992       0.41302205       0.49879530 </v>
   <v>      -0.02926706      -0.45097791      -0.39399008 </v>
   <v>       0.38012008      -0.36518317       0.48477886 </v>
   <v>      -0.13828793       0.46317802      -0.45235934 </v>
   <v>       0.30260188      -0.29679661       0.48293444 </v>
   <v>      -0.00519186      -0.39700012      -0.41154077 </v>
   <v>       0.42106368      -0.40109970       0.48756620 </v>
   <v>       0.27255703      -0.27024439       0.48247617 </v>
   <v>      -0.25902016       0.27328970       0.49712103 </v>
   <v>       0.42809865       0.49708392      -0.48310402 </v>
   <v>      -0.06659145      -0.45892841      -0.35408438 </v>
   <v>      -0.16669020       0.47347848      -0.41359724 </v>
   <v>       0.41338275      -0.29230796       0.48417575 </v>
   <v>       0.37553045      -0.25717293       0.48350553 </v>
   <v>      -0.25248392       0.37366960       0.49782640 </v>
   <v>      -0.28832034       0.30076245       0.49730023 </v>
   <v>       0.40735950       0.38948793      -0.40961407 </v>
   <v>       0.49091052      -0.36917335       0.46757595 </v>
   <v>       0.49499409      -0.47185497       0.49684649 </v>
   <v>       0.46998778      -0.26221607       0.48473187 </v>
   <v>      -0.48357239      -0.31642945       0.44738346 </v>
   <v>       0.32745874      -0.16990125       0.44314631 </v>
   <v>      -0.29063088       0.40845166       0.49833613 </v>
   <v>       0.46748105       0.46700064      -0.37008460 </v>
   <v>      -0.46997402      -0.40246455       0.47233353 </v>
   <v>      -0.34476246       0.17672609      -0.41614795 </v>
   <v>       0.46135457       0.41891234      -0.39192379 </v>
   <v>       0.41156316      -0.18031456       0.48528522 </v>
   <v>      -0.26313402       0.46519331       0.49899704 </v>
   <v>      -0.36127793       0.26263722       0.49758999 </v>
   <v>      -0.47131078       0.48469257      -0.49860390 </v>
   <v>       0.37997133      -0.14253102       0.46396784 </v>
   <v>      -0.38459913       0.14839023      -0.45401310 </v>
   <v>      -0.48813716       0.43348312      -0.44821387 </v>
   <v>      -0.39877604       0.18580396       0.49835291 </v>
   <v>       0.46902116       0.38893052      -0.35247468 </v>
   <v>      -0.37674391       0.01526309      -0.41574523 </v>
   <v>      -0.37435114       0.07767924      -0.35774653 </v>
   <v>      -0.36359445       0.37136358       0.49858165 </v>
   <v>      -0.49306108      -0.16556391      -0.46879461 </v>
   <v>       0.47923165      -0.14037894      -0.48890813 </v>
   <v>      -0.39839761       0.29847398       0.49815818 </v>
   <v>      -0.42368576       0.49682640       0.45358242 </v>
   <v>      -0.42184525       0.07572303      -0.45179303 </v>
   <v>      -0.39438817      -0.36271047       0.45278568 </v>
   <v>      -0.40558590       0.03989635      -0.39664384 </v>
   <v>      -0.45157390       0.14651480       0.45210094 </v>
   <v>      -0.38586645      -0.37973611       0.40393538 </v>
   <v>      -0.45295642       0.39598147      -0.45088748 </v>
   <v>       0.31774903      -0.07299645       0.44343450 </v>
   <v>      -0.37636232      -0.30677939       0.45054128 </v>
   <v>       0.41323711      -0.07010823       0.46821719 </v>
   <v>      -0.46448031       0.17261227       0.41289634 </v>
   <v>      -0.36169576      -0.37114416       0.48840404 </v>
   <v>      -0.35270348       0.47271084       0.41296260 </v>
   <v>      -0.46336690       0.35699865      -0.41241614 </v>
   <v>      -0.47420723       0.04151401       0.49861577 </v>
   <v>      -0.45518073       0.26920755       0.49875671 </v>
   <v>      -0.48749510       0.07730767       0.45206588 </v>
   <v>      -0.39055248       0.46073780       0.45313628 </v>
   <v>      -0.40286035       0.40894456      -0.49987141 </v>
   <v>      -0.48674653      -0.07129816      -0.48547124 </v>
   <v>       0.37353210      -0.03472773       0.44702890 </v>
   <v>      -0.45301041      -0.00200442      -0.37373177 </v>
   <v>       0.48238611      -0.03554524       0.49367199 </v>
   <v>       0.39177900      -0.00887231       0.39846342 </v>
   <v>       0.38063886       0.00610177       0.48239857 </v>
  </varray>
 </structure>
 <varray name="primitive_index" >
  <v type="int" >        1 </v>
  <v type="int" >       45 </v>
  <v type="int" >        2 </v>
  <v type="int" >        3 </v>
  <v type="int" >       44 </v>
  <v type="int" >        5 </v>
  <v type="int" >       47 </v>
  <v type="int" >       43 </v>
  <v type="int" >       42 </v>
  <v type="int" >       48 </v>
  <v type="int" >        8 </v>
  <v type="int" >       73 </v>
  <v type="int" >       37 </v>
  <v type="int" >       46 </v>
  <v type="int" >       50 </v>
  <v type="int" >       49 </v>
  <v type="int" >       90 </v>
  <v type="int" >       18 </v>
  <v type="int" >       36 </v>
  <v type="int" >       74 </v>
  <v type="int" >       23 </v>
  <v type="int" >        4 </v>
  <v type="int" >       67 </v>
  <v type="int" >       76 </v>
  <v type="int" >       77 </v>
  <v type="int" >       51 </v>
  <v type="int" >       75 </v>
  <v type="int" >       54 </v>
  <v type="int" >       24 </v>
  <v type="int" >       84 </v>
  <v type="int" >        7 </v>
  <v type="int" >       10 </v>
  <v type="int" >       39 </v>
  <v type="int" >       25 </v>
  <v type="int" >       22 </v>
  <v type="int" >       52 </v>
  <v type="int" >       53 </v>
  <v type="int" >       55 </v>
  <v type="int" >       60 </v>
  <v type="int" >       20 </v>
  <v type="int" >       87 </v>
  <v type="int" >       85 </v>
  <v type="int" >        6 </v>
  <v type="int" >       31 </v>
  <v type="int" >       26 </v>
  <v type="int" >       56 </v>
  <v type="int" >       19 </v>
  <v type="int" >       86 </v>
  <v type="int" >       12 </v>
  <v type="int" >       72 </v>
  <v type="int" >       78 </v>
  <v type="int" >       11 </v>
  <v type="int" >       59 </v>
  <v type="int" >       68 </v>
  <v type="int" >       81 </v>
  <v type="int" >       64 </v>
  <v type="int" >       69 </v>
  <v type="int" >       65 </v>
  <v type="int" >       21 </v>
  <v type="int" >       15 </v>
  <v type="int" >       16 </v>
  <v type="int" >       57 </v>
  <v type="int" >       13 </v>
  <v type="int" >       61 </v>
  <v type="int" >       58 </v>
  <v type="int" >       41 </v>
  <v type="int" >       63 </v>
  <v type="int" >       89 </v>
  <v type="int" >       66 </v>
  <v type="int" >       82 </v>
  <v type="int" >       33 </v>
  <v type="int" >       70 </v>
  <v type="int" >       29 </v>
  <v type="int" >       34 </v>
  <v type="int" >       80 </v>
  <v type="int" >       27 </v>
  <v type="int" >       35 </v>
  <v type="int" >       32 </v>
  <v type="int" >       17 </v>
  <v type="int" >       62 </v>
  <v type="int" >        9 </v>
  <v type="int" >       40 </v>
  <v type="int" >       88 </v>
  <v type="int" >       71 </v>
  <v type="int" >       38 </v>
  <v type="int" >       83 </v>
  <v type="int" >       14 </v>
  <v type="int" >       79 </v>
  <v type="int" >       28 </v>
  <v type="int" >       30 </v>
 </varray>
 <kpoints>
  <generation param="listgenerated">
   <i name="divisions" type="int">      20 </i>
   <v>       0.00000000       0.00000000       0.00000000 </v>
   <v>       0.50000000       0.00000000       0.00000000 </v>
   <v>       0.33333333       0.33333333       0.00000000 </v>
   <v>       0.00000000       0.00000000       0.00000000 </v>
  </generation>
  <varray name="kpointlist" >
   <v>       0.00000000       0.00000000       0.00000000 </v>
   <v>       0.02631579       0.00000000       0.00000000 </v>
   <v>       0.05263158       0.00000000       0.00000000 </v>
   <v>       0.07894737       0.00000000       0.00000000 </v>
   <v>       0.10526316       0.00000000       0.00000000 </v>
   <v>       0.13157895       0.00000000       0.00000000 </v>
   <v>       0.15789474       0.00000000       0.00000000 </v>
   <v>       0.18421053       0.00000000       0.00000000 </v>
   <v>       0.21052632       0.00000000       0.00000000 </v>
   <v>       0.23684211       0.00000000       0.00000000 </v>
   <v>       0.26315789       0.00000000       0.00000000 </v>
   <v>       0.28947368       0.00000000       0.00000000 </v>
   <v>       0.31578947       0.00000000       0.00000000 </v>
   <v>       0.34210526       0.00000000       0.00000000 </v>
   <v>       0.36842105       0.00000000       0.00000000 </v>
   <v>       0.39473684       0.00000000       0.00000000 </v>
   <v>       0.42105263       0.00000000       0.00000000 </v>
   <v>       0.44736842       0.00000000       0.00000000 </v>
   <v>       0.47368421       0.00000000       0.00000000 </v>
   <v>       0.50000000       0.00000000       0.00000000 </v>
   <v>       0.50000000       0.00000000       0.00000000 </v>
   <v>       0.49122807       0.01754386       0.00000000 </v>
   <v>       0.48245614       0.03508772       0.00000000 </v>
   <v>       0.47368421       0.05263158       0.00000000 </v>
   <v>       0.46491228       0.07017544       0.00000000 </v>
   <v>       0.45614035       0.08771930       0.00000000 </v>
   <v>       0.44736842       0.10526316       0.00000000 </v>
   <v>       0.43859649       0.12280702       0.00000000 </v>
   <v>       0.42982456       0.14035088       0.00000000 </v>
   <v>       0.42105263       0.15789474       0.00000000 </v>
   <v>       0.41228070       0.17543860       0.00000000 </v>
   <v>       0.40350877       0.19298246       0.00000000 </v>
   <v>       0.39473684       0.21052632       0.00000000 </v>
   <v>       0.38596491       0.22807018       0.00000000 </v>
   <v>       0.37719298       0.24561404       0.00000000 </v>
   <v>       0.36842105       0.26315789       0.00000000 </v>
   <v>       0.35964912       0.28070175       0.00000000 </v>
   <v>       0.35087719       0.29824561       0.00000000 </v>
   <v>       0.34210526       0.31578947       0.00000000 </v>
   <v>       0.33333333       0.33333333       0.00000000 </v>
   <v>       0.33333333       0.33333333       0.00000000 </v>
   <v>       0.31578947       0.31578947       0.00000000 </v>
   <v>       0.29824561       0.29824561       0.00000000 </v>
   <v>       0.28070175       0.28070175       0.00000000 </v>
   <v>       0.26315789       0.26315789       0.00000000 </v>
   <v>       0.24561404       0.24561404       0.00000000 </v>
   <v>       0.22807018       0.22807018       0.00000000 </v>
   <v>       0.21052632       0.21052632       0.00000000 </v>
   <v>       0.19298246       0.19298246       0.00000000 </v>
   <v>       0.17543860       0.17543860       0.00000000 </v>
   <v>       0.15789474       0.15789474       0.00000000 </v>
   <v>       0.14035088       0.14035088       0.00000000 </v>
   <v>       0.12280702       0.12280702       0.00000000 </v>
   <v>       0.10526316       0.10526316       0.00000000 </v>
   <v>       0.08771930       0.08771930       0.00000000 </v>
   <v>       0.07017544       0.07017544       0.00000000 </v>
   <v>       0.05263158       0.05263158       0.00000000 </v>
   <v>       0.03508772       0.03508772       0.00000000 </v>
   <v>       0.01754386       0.01754386       0.00000000 </v>
   <v>       0.00000000       0.00000000       0.00000000 </v>
  </varray>
  <varray name="weights" >
   <v>       0.01666667 </v>
   <v>       0.01666667 </v>
   <v>       0.01666667 </v>
   <v>       0.01666667 </v>
   <v>       0.01666667 </v>
   <v>       0.01666667 </v>
   <v>       0.01666667 </v>
   <v>       0.01666667 </v>
   <v>       0.01666667 </v>
   <v>       0.01666667 </v>
   <v>       0.01666667 </v>
   <v>       0.01666667 </v>
   <v>       0.01666667 </v>
   <v>       0.01666667 </v>
   <v>       0.01666667 </v>
   <v>       0.01666667 </v>
   <v>       0.01666667 </v>
   <v>       0.01666667 </v>
   <v>       0.01666667 </v>
   <v>       0.01666667 </v>
   <v>       0.01666667 </v>
   <v>       0.01666667 </v>
   <v>       0.01666667 </v>
   <v>       0.01666667 </v>
   <v>       0.01666667 </v>
   <v>       0.01666667 </v>
   <v>       0.01666667 </v>
   <v>       0.01666667 </v>
   <v>       0.01666667 </v>
   <v>       0.01666667 </v>
   <v>       0.01666667 </v>
   <v>       0.01666667 </v>
   <v>       0.01666667 </v>
   <v>       0.01666667 </v>
   <v>       0.01666667 </v>
   <v>       0.01666667 </v>
   <v>       0.01666667 </v>
   <v>       0.01666667 </v>
   <v>       0.01666667 </v>
   <v>       0.01666667 </v>
   <v>       0.01666667 </v>
   <v>       0.01666667 </v>
   <v>       0.01666667 </v>
   <v>       0.01666667 </v>
   <v>       0.01666667 </v>
   <v>       0.01666667 </v>
   <v>       0.01666667 </v>
   <v>       0.01666667 </v>
   <v>       0.01666667 </v>
   <v>       0.01666667 </v>
   <v>       0.01666667 </v>
   <v>       0.01666667 </v>
   <v>       0.01666667 </v>
   <v>       0.01666667 </v>
   <v>       0.01666667 </v>
   <v>       0.01666667 </v>
   <v>       0.01666667 </v>
   <v>       0.01666667 </v>
   <v>       0.01666667 </v>
   <v>       0.01666667 </v>
  </varray>
 </kpoints>
 <parameters>
  <separator name="general" >
   <i type="string" name="SYSTEM">Simulation for cell shape cell volume r</i>
   <i type="logical" name="LCOMPAT"> F  </i>
  </separator>
  <separator name="electronic" >
   <i type="string" name="PREC">high</i>
   <i name="ENMAX">    500.00000000</i>
   <i name="ENAUG">    644.87300000</i>
   <i name="EDIFF">      0.00001000</i>
   <i type="int" name="IALGO">    38</i>
   <i type="int" name="IWAVPR">    10</i>
   <i type="int" name="NBANDS">   176</i>
   <i name="NELECT">    258.00000000</i>
   <i type="int" name="TURBO">     0</i>
   <i type="int" name="IRESTART">     0</i>
   <i type="int" name="NREBOOT">     0</i>
   <i type="int" name="NMIN">     0</i>
   <i name="EREF">      0.00000000</i>
   <separator name="electronic smearing" >
    <i type="int" name="ISMEAR">     0</i>
    <i name="SIGMA">      0.01000000</i>
    <i name="KSPACING">      0.50000000</i>
    <i type="logical" name="KGAMMA"> T  </i>
   </separator>
   <separator name="electronic projectors" >
    <i type="logical" name="LREAL"> T  </i>
    <v name="ROPT">     -0.00040000     -0.00040000     -0.00040000</v>
    <i type="int" name="LMAXPAW">  -100</i>
    <i type="int" name="LMAXMIX">     2</i>
    <i type="logical" name="NLSPLINE"> F  </i>
   </separator>
   <separator name="electronic startup" >
    <i type="int" name="ISTART">     1</i>
    <i type="int" name="ICHARG">    11</i>
    <i type="int" name="INIWAV">     1</i>
   </separator>
   <separator name="electronic spin" >
    <i type="int" name="ISPIN">     1</i>
    <i type="logical" name="LNONCOLLINEAR"> F  </i>
    <v name="MAGMOM">      1.00000000      1.00000000      1.00000000      1.00000000      1.00000000      1.00000000      1.00000000      1.00000000      1.00000000      1.00000000      1.00000000      1.00000000      1.00000000      1.00000000      1.00000000      1.00000000      1.00000000      1.00000000      1.00000000      1.00000000
      1.00000000      1.00000000      1.00000000      1.00000000      1.00000000      1.00000000      1.00000000      1.00000000      1.00000000      1.00000000      1.00000000      1.00000000      1.00000000      1.00000000      1.00000000      1.00000000      1.00000000      1.00000000      1.00000000      1.00000000
      1.00000000      1.00000000      1.00000000      1.00000000      1.00000000      1.00000000      1.00000000      1.00000000      1.00000000      1.00000000      1.00000000      1.00000000      1.00000000      1.00000000      1.00000000      1.00000000      1.00000000      1.00000000      1.00000000      1.00000000
      1.00000000      1.00000000      1.00000000      1.00000000      1.00000000      1.00000000      1.00000000      1.00000000      1.00000000      1.00000000      1.00000000      1.00000000      1.00000000      1.00000000      1.00000000      1.00000000      1.00000000      1.00000000      1.00000000      1.00000000
      1.00000000      1.00000000      1.00000000      1.00000000      1.00000000      1.00000000      1.00000000      1.00000000      1.00000000      1.00000000</v>
    <i name="NUPDOWN">     -1.00000000</i>
    <i type="logical" name="LSORBIT"> F  </i>
    <v name="SAXIS">      0.00000000      0.00000000      1.00000000</v>
    <i type="logical" name="LSPIRAL"> F  </i>
    <v name="QSPIRAL">      0.00000000      0.00000000      0.00000000</v>
    <i type="logical" name="LZEROZ"> F  </i>
   </separator>
   <separator name="electronic exchange-correlation" >
    <i type="logical" name="LASPH"> F  </i>
    <i type="logical" name="LMETAGGA"> F  </i>
   </separator>
   <separator name="electronic convergence" >
    <i type="int" name="NELM">   200</i>
    <i type="int" name="NELMDL">     0</i>
    <i type="int" name="NELMIN">     2</i>
    <i name="ENINI">    500.00000000</i>
    <separator name="electronic convergence detail" >
     <i type="logical" name="LDIAG"> T  </i>
     <i type="logical" name="LSUBROT"> F  </i>
     <i name="WEIMIN">      0.00000000</i>
     <i name="EBREAK">      0.00000001</i>
     <i name="DEPER">      0.30000000</i>
     <i type="int" name="NRMM">     4</i>
     <i name="TIME">      0.40000000</i>
    </separator>
   </separator>
   <separator name="electronic mixer" >
    <i name="AMIX">      0.40000000</i>
    <i name="BMIX">      1.00000000</i>
    <i name="AMIN">      0.10000000</i>
    <i name="AMIX_MAG">      1.60000000</i>
    <i name="BMIX_MAG">      1.00000000</i>
    <separator name="electronic mixer details" >
     <i type="int" name="IMIX">     4</i>
     <i type="logical" name="MIXFIRST"> F  </i>
     <i type="int" name="MAXMIX">   -45</i>
     <i name="WC">    100.00000000</i>
     <i type="int" name="INIMIX">     1</i>
     <i type="int" name="MIXPRE">     1</i>
     <i type="int" name="MREMOVE">     5</i>
    </separator>
   </separator>
   <separator name="electronic dipolcorrection" >
    <i type="logical" name="LDIPOL"> F  </i>
    <i type="logical" name="LMONO"> F  </i>
    <i type="int" name="IDIPOL">     0</i>
    <i name="EPSILON">      1.00000000</i>
    <v name="DIPOL">   -100.00000000   -100.00000000   -100.00000000</v>
    <i name="EFIELD">      0.00000000</i>
   </separator>
  </separator>
  <separator name="grids" >
   <i type="int" name="NGX">   162</i>
   <i type="int" name="NGY">   162</i>
   <i type="int" name="NGZ">   150</i>
   <i type="int" name="NGXF">   250</i>
   <i type="int" name="NGYF">   250</i>
   <i type="int" name="NGZF">   224</i>
   <i type="logical" name="ADDGRID"> F  </i>
  </separator>
  <separator name="ionic" >
   <i type="int" name="NSW">     0</i>
   <i type="int" name="IBRION">    -1</i>
   <i type="int" name="MDALGO">     0</i>
   <i type="int" name="ISIF">     2</i>
   <i name="PSTRESS">      0.00000000</i>
   <i name="EDIFFG">     -0.01000000</i>
   <i type="int" name="NFREE">     0</i>
   <i name="POTIM">      0.30000000</i>
   <i name="SMASS">     -3.00000000</i>
   <i name="SCALEE">      1.00000000</i>
  </separator>
  <separator name="ionic md" >
   <i name="TEBEG">      0.00010000</i>
   <i name="TEEND">      0.00010000</i>
   <i type="int" name="NBLOCK">     1</i>
   <i type="int" name="KBLOCK">     1</i>
   <i type="int" name="NPACO">   256</i>
   <i name="APACO">     16.00000000</i>
  </separator>
  <separator name="symmetry" >
   <i type="int" name="ISYM">     2</i>
   <i name="SYMPREC">      0.00001000</i>
  </separator>
  <separator name="dos" >
   <i type="int" name="LORBIT">     0</i>
   <v name="RWIGS">     -1.00000000     -1.00000000     -1.00000000</v>
   <i type="int" name="NEDOS">   301</i>
   <i name="EMIN">     10.00000000</i>
   <i name="EMAX">    -10.00000000</i>
   <i name="EFERMI">      0.00000000</i>
  </separator>
  <separator name="writing" >
   <i type="int" name="NWRITE">     0</i>
   <i type="logical" name="LWAVE"> F  </i>
   <i type="logical" name="LDOWNSAMPLE"> F  </i>
   <i type="logical" name="LCHARG"> F  </i>
   <i type="logical" name="LPARD"> F  </i>
   <i type="logical" name="LVTOT"> F  </i>
   <i type="logical" name="LVHAR"> F  </i>
   <i type="logical" name="LELF"> F  </i>
   <i type="logical" name="LOPTICS"> F  </i>
   <v name="STM">      0.00000000      0.00000000      0.00000000      0.00000000      0.00000000      0.00000000      0.00000000</v>
  </separator>
  <separator name="performance" >
   <i type="int" name="NPAR">    16</i>
   <i type="int" name="NSIM">     4</i>
   <i type="int" name="NBLK">    -1</i>
   <i type="logical" name="LPLANE"> T  </i>
   <i type="logical" name="LSCALAPACK"> T  </i>
   <i type="logical" name="LSCAAWARE"> F  </i>
   <i type="logical" name="LSCALU"> F  </i>
   <i type="logical" name="LASYNC"> F  </i>
   <i type="logical" name="LORBITALREAL"> F  </i>
  </separator>
  <separator name="miscellaneous" >
   <i type="int" name="IDIOT">     3</i>
   <i type="int" name="ISPECIAL">     0</i>
   <i type="logical" name="LMUSIC"> F  </i>
   <v name="POMASS">      1.00000000     14.00100000     12.01100000</v>
   <v name="DARWINR">      0.00000000      0.00000000      0.00000000</v>
   <v name="DARWINV">      1.00000000      1.00000000      1.00000000</v>
   <i type="logical" name="LCORR"> T  </i>
  </separator>
  <i type="logical" name="GGA_COMPAT"> T  </i>
  <i type="logical" name="LBERRY"> F  </i>
  <i type="int" name="ICORELEVEL">     0</i>
  <i type="logical" name="LDAU"> F  </i>
  <i type="int" name="I_CONSTRAINED_M">     0</i>
  <separator name="electronic exchange-correlation" >
   <i type="string" name="GGA">PE</i>
   <i type="int" name="VOSKOWN">     0</i>
   <i type="logical" name="LHFCALC"> F  </i>
   <i type="string" name="PRECFOCK"></i>
   <i type="logical" name="LSYMGRAD"> F  </i>
   <i type="logical" name="LHFONE"> F  </i>
   <i type="logical" name="LRHFCALC"> F  </i>
   <i type="logical" name="LTHOMAS"> F  </i>
   <i type="logical" name="LMODELHF"> F  </i>
   <i name="ENCUT4O">     -1.00000000</i>
   <i type="int" name="EXXOEP">     0</i>
   <i type="int" name="FOURORBIT">     0</i>
   <i name="AEXX">      0.00000000</i>
   <i name="HFALPHA">      0.00000000</i>
   <i name="MCALPHA">      0.00000000</i>
   <i name="ALDAX">      1.00000000</i>
   <i name="AGGAX">      1.00000000</i>
   <i name="ALDAC">      1.00000000</i>
   <i name="AGGAC">      1.00000000</i>
   <i type="int" name="NKREDX">     1</i>
   <i type="int" name="NKREDY">     1</i>
   <i type="int" name="NKREDZ">     1</i>
   <i type="logical" name="SHIFTRED"> F  </i>
   <i type="logical" name="ODDONLY"> F  </i>
   <i type="logical" name="EVENONLY"> F  </i>
   <i type="int" name="LMAXFOCK">     0</i>
   <i type="int" name="NMAXFOCKAE">     0</i>
   <i type="logical" name="LFOCKAEDFT"> F  </i>
   <i name="HFSCREEN">      0.00000000</i>
   <i name="HFSCREENC">      0.00000000</i>
   <i type="int" name="NBANDSGWLOW">     0</i>
  </separator>
  <separator name="vdW DFT" >
   <i type="logical" name="LUSE_VDW"> F  </i>
   <i name="Zab_VDW">     -0.84910000</i>
   <i name="PARAM1">      0.12340000</i>
   <i name="PARAM2">      1.00000000</i>
   <i name="PARAM3">      0.00000000</i>
  </separator>
  <separator name="model GW" >
   <i type="int" name="MODEL_GW">     0</i>
   <i name="MODEL_EPS0">     56.91557298</i>
   <i name="MODEL_ALPHA">      1.00000000</i>
  </separator>
  <separator name="linear response parameters" >
   <i type="logical" name="LEPSILON"> F  </i>
   <i type="logical" name="LRPA"> F  </i>
   <i type="logical" name="LNABLA"> F  </i>
   <i type="logical" name="LVEL"> F  </i>
   <i type="int" name="KINTER">     0</i>
   <i name="CSHIFT">      0.10000000</i>
   <i name="OMEGAMAX">     -1.00000000</i>
   <i name="DEG_THRESHOLD">      0.00200000</i>
   <i name="RTIME">     -0.10000000</i>
   <i name="WPLASMAI">      0.00000000</i>
   <v name="DFIELD">      0.00000000      0.00000000      0.00000000</v>
   <v name="WPLASMA">      0.00000000      0.00000000      0.00000000      0.00000000      0.00000000      0.00000000      0.00000000      0.00000000      0.00000000</v>
  </separator>
  <separator name="orbital magnetization" >
   <i type="logical" name="NUCIND"> F  </i>
   <v name="MAGPOS">      0.00000000      0.00000000      0.00000000</v>
   <i type="logical" name="LNICSALL"> T  </i>
   <i type="logical" name="ORBITALMAG"> F  </i>
   <i type="logical" name="LMAGBLOCH"> F  </i>
   <i type="logical" name="LCHIMAG"> F  </i>
   <i type="logical" name="LGAUGE"> T  </i>
   <i type="int" name="MAGATOM">     0</i>
   <v name="MAGDIPOL">      0.00000000      0.00000000      0.00000000</v>
   <v name="AVECCONST">      0.00000000      0.00000000      0.00000000</v>
  </separator>
  <separator name="response functions" >
   <i type="logical" name="LADDER"> F  </i>
   <i type="logical" name="LRPAFORCE"> F  </i>
   <i type="logical" name="LFXC"> F  </i>
   <i type="logical" name="LHARTREE"> T  </i>
   <i type="int" name="IBSE">     0</i>
   <v type="int" name="KPOINT">    -1     0     0     0</v>
   <i type="logical" name="LTCTE"> F  </i>
   <i type="logical" name="LTETE"> F  </i>
   <i type="logical" name="LTRIPLET"> F  </i>
   <i type="logical" name="LFXCEPS"> F  </i>
   <i type="logical" name="LFXHEG"> F  </i>
   <i type="int" name="NATURALO">     2</i>
   <i type="logical" name="L2ORDER"> F  </i>
   <i type="logical" name="LMP2LT"> F  </i>
   <i type="logical" name="LUSEW"> F  </i>
   <i name="ENCUTGW">     -2.00000000</i>
   <i name="ENCUTGWSOFT">     -2.00000000</i>
   <i name="ENCUTLF">     -1.00000000</i>
   <i type="int" name="LMAXMP2">    -1</i>
   <i name="SCISSOR">      0.00000000</i>
   <i type="int" name="NOMEGA">     0</i>
   <i type="int" name="NOMEGAR">     0</i>
   <i type="int" name="NBANDSGW">    -1</i>
   <i type="int" name="NBANDSO">    -1</i>
   <i type="int" name="NBANDSV">    -1</i>
   <i type="int" name="NELM">   200</i>
   <i type="int" name="NELMHF">     1</i>
   <i type="int" name="DIM">     3</i>
   <i type="int" name="ANTIRES">     0</i>
   <i name="OMEGAMAX">    -30.00000000</i>
   <i name="OMEGAMIN">    -30.00000000</i>
   <i name="OMEGATL">   -200.00000000</i>
   <i type="int" name="OMEGAGRID">   140</i>
   <i name="CSHIFT">     -0.10000000</i>
   <i type="logical" name="SELFENERGY"> F  </i>
   <i type="logical" name="LSPECTRAL"> F  </i>
   <i type="logical" name="LSPECTRALGW"> F  </i>
   <i type="logical" name="LSINGLES"> F  </i>
   <i type="logical" name="LFERMIGW"> F  </i>
   <i type="logical" name="ODDONLYGW"> F  </i>
   <i type="logical" name="EVENONLYGW"> F  </i>
   <i type="int" name="NKREDLFX">     1</i>
   <i type="int" name="NKREDLFY">     1</i>
   <i type="int" name="NKREDLFZ">     1</i>
   <i type="int" name="MAXMEM">  2800</i>
   <i type="int" name="TELESCOPE">     0</i>
   <i type="int" name="TAUPAR">     1</i>
   <i type="int" name="OMEGAPAR">    -1</i>
   <i name="LAMBDA">      1.00000000</i>
  </separator>
  <separator name="External order field" >
   <i name="OFIELD_KAPPA">      0.00000000</i>
   <v name="OFIELD_K">      0.00000000      0.00000000      0.00000000</v>
   <i name="OFIELD_Q6_NEAR">      0.00000000</i>
   <i name="OFIELD_Q6_FAR">      0.00000000</i>
   <i name="OFIELD_A">      0.00000000</i>
  </separator>
  <separator name="solvation model" >
   <i type="logical" name="LSOL"> F  </i>
  </separator>
 </parameters>
 <atominfo>
  <atoms>      90 </atoms>
  <types>       3 </types>
  <array name="atoms" >
   <dimension dim="1">ion</dimension>
   <field type="string">element</field>
   <field type="int">atomtype</field>
   <set>
    <rc><c>H </c><c>   1</c></rc>
    <rc><c>H </c><c>   1</c></rc>
    <rc><c>H </c><c>   1</c></rc>
    <rc><c>H </c><c>   1</c></rc>
    <rc><c>H </c><c>   1</c></rc>
    <rc><c>H </c><c>   1</c></rc>
    <rc><c>H </c><c>   1</c></rc>
    <rc><c>H </c><c>   1</c></rc>
    <rc><c>H </c><c>   1</c></rc>
    <rc><c>H </c><c>   1</c></rc>
    <rc><c>H </c><c>   1</c></rc>
    <rc><c>H </c><c>   1</c></rc>
    <rc><c>H </c><c>   1</c></rc>
    <rc><c>H </c><c>   1</c></rc>
    <rc><c>H </c><c>   1</c></rc>
    <rc><c>H </c><c>   1</c></rc>
    <rc><c>H </c><c>   1</c></rc>
    <rc><c>H </c><c>   1</c></rc>
    <rc><c>H </c><c>   1</c></rc>
    <rc><c>H </c><c>   1</c></rc>
    <rc><c>H </c><c>   1</c></rc>
    <rc><c>H </c><c>   1</c></rc>
    <rc><c>H </c><c>   1</c></rc>
    <rc><c>H </c><c>   1</c></rc>
    <rc><c>H </c><c>   1</c></rc>
    <rc><c>H </c><c>   1</c></rc>
    <rc><c>H </c><c>   1</c></rc>
    <rc><c>H </c><c>   1</c></rc>
    <rc><c>H </c><c>   1</c></rc>
    <rc><c>H </c><c>   1</c></rc>
    <rc><c>H </c><c>   1</c></rc>
    <rc><c>H </c><c>   1</c></rc>
    <rc><c>H </c><c>   1</c></rc>
    <rc><c>H </c><c>   1</c></rc>
    <rc><c>H </c><c>   1</c></rc>
    <rc><c>H </c><c>   1</c></rc>
    <rc><c>N </c><c>   2</c></rc>
    <rc><c>N </c><c>   2</c></rc>
    <rc><c>N </c><c>   2</c></rc>
    <rc><c>N </c><c>   2</c></rc>
    <rc><c>N </c><c>   2</c></rc>
    <rc><c>N </c><c>   2</c></rc>
    <rc><c>C </c><c>   3</c></rc>
    <rc><c>C </c><c>   3</c></rc>
    <rc><c>C </c><c>   3</c></rc>
    <rc><c>C </c><c>   3</c></rc>
    <rc><c>C </c><c>   3</c></rc>
    <rc><c>C </c><c>   3</c></rc>
    <rc><c>C </c><c>   3</c></rc>
    <rc><c>C </c><c>   3</c></rc>
    <rc><c>C </c><c>   3</c></rc>
    <rc><c>C </c><c>   3</c></rc>
    <rc><c>C </c><c>   3</c></rc>
    <rc><c>C </c><c>   3</c></rc>
    <rc><c>C </c><c>   3</c></rc>
    <rc><c>C </c><c>   3</c></rc>
    <rc><c>C </c><c>   3</c></rc>
    <rc><c>C </c><c>   3</c></rc>
    <rc><c>C </c><c>   3</c></rc>
    <rc><c>C </c><c>   3</c></rc>
    <rc><c>C </c><c>   3</c></rc>
    <rc><c>C </c><c>   3</c></rc>
    <rc><c>C </c><c>   3</c></rc>
    <rc><c>C </c><c>   3</c></rc>
    <rc><c>C </c><c>   3</c></rc>
    <rc><c>C </c><c>   3</c></rc>
    <rc><c>C </c><c>   3</c></rc>
    <rc><c>C </c><c>   3</c></rc>
    <rc><c>C </c><c>   3</c></rc>
    <rc><c>C </c><c>   3</c></rc>
    <rc><c>C </c><c>   3</c></rc>
    <rc><c>C </c><c>   3</c></rc>
    <rc><c>C </c><c>   3</c></rc>
    <rc><c>C </c><c>   3</c></rc>
    <rc><c>C </c><c>   3</c></rc>
    <rc><c>C </c><c>   3</c></rc>
    <rc><c>C </c><c>   3</c></rc>
    <rc><c>C </c><c>   3</c></rc>
    <rc><c>C </c><c>   3</c></rc>
    <rc><c>C </c><c>   3</c></rc>
    <rc><c>C </c><c>   3</c></rc>
    <rc><c>C </c><c>   3</c></rc>
    <rc><c>C </c><c>   3</c></rc>
    <rc><c>C </c><c>   3</c></rc>
    <rc><c>C </c><c>   3</c></rc>
    <rc><c>C </c><c>   3</c></rc>
    <rc><c>C </c><c>   3</c></rc>
    <rc><c>C </c><c>   3</c></rc>
    <rc><c>C </c><c>   3</c></rc>
    <rc><c>C </c><c>   3</c></rc>
   </set>
  </array>
  <array name="atomtypes" >
   <dimension dim="1">type</dimension>
   <field type="int">atomspertype</field>
   <field type="string">element</field>
   <field>mass</field>
   <field>valence</field>
   <field type="string">pseudopotential</field>
   <set>
    <rc><c>  36</c><c>H </c><c>      1.00000000</c><c>      1.00000000</c><c>  PAW_PBE H 15Jun2001                   </c></rc>
    <rc><c>   6</c><c>N </c><c>     14.00100000</c><c>      5.00000000</c><c>  PAW_PBE N 08Apr2002                   </c></rc>
    <rc><c>  48</c><c>C </c><c>     12.01100000</c><c>      4.00000000</c><c>  PAW_PBE C 08Apr2002                   </c></rc>
   </set>
  </array>
 </atominfo>
 <structure name="initialpos" >
  <crystal>
   <varray name="basis" >
    <v>      22.19275132      -0.00358812       0.00000000 </v>
    <v>     -11.09948509      19.23630908       0.00000000 </v>
    <v>       0.00000000       0.00000000      20.00000000 </v>
   </varray>
   <i name="volume">   8537.33594768 </i>
   <varray name="rec_basis" >
    <v>       0.04506396       0.02600222       0.00000000 </v>
    <v>       0.00000841       0.05198987       0.00000000 </v>
    <v>       0.00000000       0.00000000       0.05000000 </v>
   </varray>
  </crystal>
  <varray name="positions" >
   <v>       0.08226589       0.38672783       0.44953387 </v>
   <v>       0.00344182       0.37249275       0.48762444 </v>
   <v>       0.01849605       0.39579659       0.40292497 </v>
   <v>       0.17573869       0.67133275       0.52829817 </v>
   <v>       0.18005426       0.49372079       0.44678045 </v>
   <v>       0.46998778       0.73778393       0.48473187 </v>
   <v>       0.27255703       0.72975561       0.48247617 </v>
   <v>       0.28058779       0.54042538       0.48492483 </v>
   <v>       0.54481927       0.26920755       0.49875671 </v>
   <v>       0.74097984       0.27328970       0.49712103 </v>
   <v>       0.73686598       0.46519331       0.49899704 </v>
   <v>       0.65523754       0.17672609       0.58385205 </v>
   <v>       0.50693892       0.83443609       0.53120539 </v>
   <v>       0.54698959       0.99799558       0.62626823 </v>
   <v>       0.62325609       0.01526309       0.58425477 </v>
   <v>       0.62564886       0.07767924       0.64225347 </v>
   <v>       0.53663310       0.35699865       0.58758386 </v>
   <v>       0.33975774       0.50313423       0.53224686 </v>
   <v>       0.46748105       0.46700064       0.62991540 </v>
   <v>       0.40735950       0.38948793       0.59038593 </v>
   <v>       0.46902116       0.38893052       0.64752532 </v>
   <v>       0.83330980       0.47347848       0.58640276 </v>
   <v>       0.01310900       0.54312317       0.62723644 </v>
   <v>       0.99480814       0.60299988       0.58845923 </v>
   <v>       0.93340855       0.54107159       0.64591562 </v>
   <v>       0.32745874       0.83009875       0.44314631 </v>
   <v>       0.53551969       0.17261227       0.41289634 </v>
   <v>       0.39177900       0.99112769       0.39846342 </v>
   <v>       0.31774903       0.92700355       0.44343450 </v>
   <v>       0.38063886       0.00610177       0.48239857 </v>
   <v>       0.51642761       0.68357055       0.44738346 </v>
   <v>       0.64729652       0.47271084       0.41296260 </v>
   <v>       0.61413355       0.62026389       0.40393538 </v>
   <v>       0.62363768       0.69322061       0.45054128 </v>
   <v>       0.63830424       0.62885584       0.48840404 </v>
   <v>       0.83765522       0.36292881       0.41140676 </v>
   <v>       0.08138147       0.58294112       0.51330804 </v>
   <v>       0.51325347       0.92870184       0.51452876 </v>
   <v>       0.42809865       0.49708392       0.51689598 </v>
   <v>       0.51250490       0.07730767       0.45206588 </v>
   <v>       0.57631424       0.49682640       0.45358242 </v>
   <v>       0.93300635       0.43420352       0.45137980 </v>
   <v>       0.04577183       0.51577973       0.49419503 </v>
   <v>       0.08024664       0.48051713       0.47054959 </v>
   <v>       0.04435609       0.40479424       0.45166059 </v>
   <v>       0.15054203       0.61790114       0.50969128 </v>
   <v>       0.15270298       0.51948471       0.46611941 </v>
   <v>       0.19048499       0.58945559       0.48556588 </v>
   <v>       0.26742606       0.63024381       0.48364736 </v>
   <v>       0.30709913       0.59698942       0.48429469 </v>
   <v>       0.38012008       0.63481683       0.48477886 </v>
   <v>       0.41338275       0.70769204       0.48417575 </v>
   <v>       0.37553045       0.74282707       0.48350553 </v>
   <v>       0.30260188       0.70320339       0.48293444 </v>
   <v>       0.74751608       0.37366960       0.49782640 </v>
   <v>       0.70936912       0.40845166       0.49833613 </v>
   <v>       0.63640555       0.37136358       0.49858165 </v>
   <v>       0.60160239       0.29847398       0.49815818 </v>
   <v>       0.63872207       0.26263722       0.49758999 </v>
   <v>       0.71167966       0.30076245       0.49730023 </v>
   <v>       0.47923165       0.85962106       0.51109187 </v>
   <v>       0.52579277       0.04151401       0.49861577 </v>
   <v>       0.57815475       0.07572303       0.54820697 </v>
   <v>       0.61540087       0.14839023       0.54598690 </v>
   <v>       0.60122396       0.18580396       0.49835291 </v>
   <v>       0.59441410       0.03989635       0.60335616 </v>
   <v>       0.39298049       0.53107125       0.51294350 </v>
   <v>       0.52868922       0.48469257       0.50139610 </v>
   <v>       0.51186284       0.43348312       0.55178613 </v>
   <v>       0.54704358       0.39598147       0.54911252 </v>
   <v>       0.59713965       0.40894456       0.50012859 </v>
   <v>       0.46135457       0.41891234       0.60807621 </v>
   <v>       0.96862136       0.48189513       0.49905214 </v>
   <v>       0.93443551       0.49854553       0.54980831 </v>
   <v>       0.86171207       0.46317802       0.54764066 </v>
   <v>       0.82440008       0.41302205       0.49879530 </v>
   <v>       0.97073294       0.54902209       0.60600992 </v>
   <v>       0.41156316       0.81968544       0.48528522 </v>
   <v>       0.48238611       0.96445476       0.49367199 </v>
   <v>       0.41323711       0.92989177       0.46821719 </v>
   <v>       0.37997133       0.85746898       0.46396784 </v>
   <v>       0.54842610       0.14651480       0.45210094 </v>
   <v>       0.37353210       0.96527227       0.44702890 </v>
   <v>       0.42106368       0.59890030       0.48756620 </v>
   <v>       0.49499409       0.52814503       0.49684649 </v>
   <v>       0.53002598       0.59753545       0.47233353 </v>
   <v>       0.49091052       0.63082665       0.46757595 </v>
   <v>       0.60944752       0.46073780       0.45313628 </v>
   <v>       0.60561183       0.63728953       0.45278568 </v>
   <v>       0.86373062       0.40084649       0.45145109 </v>
  </varray>
 </structure>
 <calculation>
  <scstep>
   <time name="dav">  118.57  119.58</time>
   <time name="total">  118.74  119.75</time>
   <energy>
    <i name="alphaZ">     36.34758123 </i>
    <i name="ewald">  28288.00855788 </i>
    <i name="hartreedc"> -35757.79357944 </i>
    <i name="XCdc">    879.29275873 </i>
    <i name="pawpsdc">  23194.76874945 </i>
    <i name="pawaedc"> -23236.81623186 </i>
    <i name="eentropy">     -0.00000000 </i>
    <i name="bandstr">  -3117.17267042 </i>
    <i name="atom">   9099.84481264 </i>
    <i name="e_fr_energy">   -613.52002179 </i>
    <i name="e_wo_entrp">   -613.52002179 </i>
    <i name="e_0_energy">   -613.52002179 </i>
   </energy>
  </scstep>
  <scstep>
   <time name="dav">  128.33  129.40</time>
   <time name="total">  128.34  129.41</time>
   <energy>
    <i name="e_fr_energy">   -614.11220111 </i>
    <i name="e_wo_entrp">   -614.11220111 </i>
    <i name="e_0_energy">   -614.11220111 </i>
   </energy>
  </scstep>
  <scstep>
   <time name="dav">  135.36  136.54</time>
   <time name="total">  135.37  136.55</time>
   <energy>
    <i name="e_fr_energy">   -614.12706396 </i>
    <i name="e_wo_entrp">   -614.12706396 </i>
    <i name="e_0_energy">   -614.12706396 </i>
   </energy>
  </scstep>
  <scstep>
   <time name="dav">  126.35  127.44</time>
   <time name="total">  126.36  127.44</time>
   <energy>
    <i name="e_fr_energy">   -614.12744246 </i>
    <i name="e_wo_entrp">   -614.12744246 </i>
    <i name="e_0_energy">   -614.12744246 </i>
   </energy>
  </scstep>
  <scstep>
   <time name="dav">  122.59  123.64</time>
   <time name="total">  122.60  123.65</time>
   <energy>
    <i name="e_fr_energy">   -614.12745748 </i>
    <i name="e_wo_entrp">   -614.12745748 </i>
    <i name="e_0_energy">   -614.12745748 </i>
   </energy>
  </scstep>
  <scstep>
   <time name="dav">   98.67   99.59</time>
   <time name="total">   98.68   99.59</time>
   <energy>
    <i name="alphaZ">     36.34758123 </i>
    <i name="ewald">  28288.00855788 </i>
    <i name="hartreedc"> -35757.79357944 </i>
    <i name="XCdc">    879.29275873 </i>
    <i name="pawpsdc">  23194.76874945 </i>
    <i name="pawaedc"> -23236.81623186 </i>
    <i name="eentropy">     -0.00000000 </i>
    <i name="bandstr">  -3117.78010668 </i>
    <i name="atom">   9099.84481264 </i>
    <i name="e_fr_energy">   -614.12745805 </i>
    <i name="e_wo_entrp">   -614.12745805 </i>
    <i name="e_0_energy">   -614.12745805 </i>
   </energy>
  </scstep>
  <structure>
   <crystal>
    <varray name="basis" >
     <v>      22.19275132      -0.00358812       0.00000000 </v>
     <v>     -11.09948509      19.23630908       0.00000000 </v>
     <v>       0.00000000       0.00000000      20.00000000 </v>
    </varray>
    <i name="volume">   8537.33594768 </i>
    <varray name="rec_basis" >
     <v>       0.04506396       0.02600222       0.00000000 </v>
     <v>       0.00000841       0.05198987       0.00000000 </v>
     <v>       0.00000000       0.00000000       0.05000000 </v>
    </varray>
   </crystal>
   <varray name="positions" >
    <v>       0.08226589       0.38672783       0.44953387 </v>
    <v>       0.00344182       0.37249275       0.48762444 </v>
    <v>       0.01849605       0.39579659       0.40292497 </v>
    <v>       0.17573869       0.67133275       0.52829817 </v>
    <v>       0.18005426       0.49372079       0.44678045 </v>
    <v>       0.46998778       0.73778393       0.48473187 </v>
    <v>       0.27255703       0.72975561       0.48247617 </v>
    <v>       0.28058779       0.54042538       0.48492483 </v>
    <v>       0.54481927       0.26920755       0.49875671 </v>
    <v>       0.74097984       0.27328970       0.49712103 </v>
    <v>       0.73686598       0.46519331       0.49899704 </v>
    <v>       0.65523754       0.17672609       0.58385205 </v>
    <v>       0.50693892       0.83443609       0.53120539 </v>
    <v>       0.54698959       0.99799558       0.62626823 </v>
    <v>       0.62325609       0.01526309       0.58425477 </v>
    <v>       0.62564886       0.07767924       0.64225347 </v>
    <v>       0.53663310       0.35699865       0.58758386 </v>
    <v>       0.33975774       0.50313423       0.53224686 </v>
    <v>       0.46748105       0.46700064       0.62991540 </v>
    <v>       0.40735950       0.38948793       0.59038593 </v>
    <v>       0.46902116       0.38893052       0.64752532 </v>
    <v>       0.83330980       0.47347848       0.58640276 </v>
    <v>       0.01310900       0.54312317       0.62723644 </v>
    <v>       0.99480814       0.60299988       0.58845923 </v>
    <v>       0.93340855       0.54107159       0.64591562 </v>
    <v>       0.32745874       0.83009875       0.44314631 </v>
    <v>       0.53551969       0.17261227       0.41289634 </v>
    <v>       0.39177900       0.99112769       0.39846342 </v>
    <v>       0.31774903       0.92700355       0.44343450 </v>
    <v>       0.38063886       0.00610177       0.48239857 </v>
    <v>       0.51642761       0.68357055       0.44738346 </v>
    <v>       0.64729652       0.47271084       0.41296260 </v>
    <v>       0.61413355       0.62026389       0.40393538 </v>
    <v>       0.62363768       0.69322061       0.45054128 </v>
    <v>       0.63830424       0.62885584       0.48840404 </v>
    <v>       0.83765522       0.36292881       0.41140676 </v>
    <v>       0.08138147       0.58294112       0.51330804 </v>
    <v>       0.51325347       0.92870184       0.51452876 </v>
    <v>       0.42809865       0.49708392       0.51689598 </v>
    <v>       0.51250490       0.07730767       0.45206588 </v>
    <v>       0.57631424       0.49682640       0.45358242 </v>
    <v>       0.93300635       0.43420352       0.45137980 </v>
    <v>       0.04577183       0.51577973       0.49419503 </v>
    <v>       0.08024664       0.48051713       0.47054959 </v>
    <v>       0.04435609       0.40479424       0.45166059 </v>
    <v>       0.15054203       0.61790114       0.50969128 </v>
    <v>       0.15270298       0.51948471       0.46611941 </v>
    <v>       0.19048499       0.58945559       0.48556588 </v>
    <v>       0.26742606       0.63024381       0.48364736 </v>
    <v>       0.30709913       0.59698942       0.48429469 </v>
    <v>       0.38012008       0.63481683       0.48477886 </v>
    <v>       0.41338275       0.70769204       0.48417575 </v>
    <v>       0.37553045       0.74282707       0.48350553 </v>
    <v>       0.30260188       0.70320339       0.48293444 </v>
    <v>       0.74751608       0.37366960       0.49782640 </v>
    <v>       0.70936912       0.40845166       0.49833613 </v>
    <v>       0.63640555       0.37136358       0.49858165 </v>
    <v>       0.60160239       0.29847398       0.49815818 </v>
    <v>       0.63872207       0.26263722       0.49758999 </v>
    <v>       0.71167966       0.30076245       0.49730023 </v>
    <v>       0.47923165       0.85962106       0.51109187 </v>
    <v>       0.52579277       0.04151401       0.49861577 </v>
    <v>       0.57815475       0.07572303       0.54820697 </v>
    <v>       0.61540087       0.14839023       0.54598690 </v>
    <v>       0.60122396       0.18580396       0.49835291 </v>
    <v>       0.59441410       0.03989635       0.60335616 </v>
    <v>       0.39298049       0.53107125       0.51294350 </v>
    <v>       0.52868922       0.48469257       0.50139610 </v>
    <v>       0.51186284       0.43348312       0.55178613 </v>
    <v>       0.54704358       0.39598147       0.54911252 </v>
    <v>       0.59713965       0.40894456       0.50012859 </v>
    <v>       0.46135457       0.41891234       0.60807621 </v>
    <v>       0.96862136       0.48189513       0.49905214 </v>
    <v>       0.93443551       0.49854553       0.54980831 </v>
    <v>       0.86171207       0.46317802       0.54764066 </v>
    <v>       0.82440008       0.41302205       0.49879530 </v>
    <v>       0.97073294       0.54902209       0.60600992 </v>
    <v>       0.41156316       0.81968544       0.48528522 </v>
    <v>       0.48238611       0.96445476       0.49367199 </v>
    <v>       0.41323711       0.92989177       0.46821719 </v>
    <v>       0.37997133       0.85746898       0.46396784 </v>
    <v>       0.54842610       0.14651480       0.45210094 </v>
    <v>       0.37353210       0.96527227       0.44702890 </v>
    <v>       0.42106368       0.59890030       0.48756620 </v>
    <v>       0.49499409       0.52814503       0.49684649 </v>
    <v>       0.53002598       0.59753545       0.47233353 </v>
    <v>       0.49091052       0.63082665       0.46757595 </v>
    <v>       0.60944752       0.46073780       0.45313628 </v>
    <v>       0.60561183       0.63728953       0.45278568 </v>
    <v>       0.86373062       0.40084649       0.45145109 </v>
   </varray>
  </structure>
  <varray name="forces" >
   <v>       0.00057878      -0.00122468       0.00062078 </v>
   <v>       0.00043022      -0.00058489      -0.00081592 </v>
   <v>       0.00151545      -0.00222072      -0.00209821 </v>
   <v>      -0.00169112       0.00075381       0.00241655 </v>
   <v>       0.00212650       0.00170151      -0.00123484 </v>
   <v>       0.00048287      -0.00177254      -0.00071120 </v>
   <v>      -0.00119055      -0.00207400       0.00194689 </v>
   <v>       0.00010410      -0.00209258      -0.00033380 </v>
   <v>      -0.00051557       0.00177445      -0.00096264 </v>
   <v>       0.00094613      -0.00122480       0.00120017 </v>
   <v>      -0.00020985       0.00076858      -0.00021553 </v>
   <v>      -0.00268203       0.00005883       0.00088832 </v>
   <v>      -0.00070460       0.00454870      -0.00011482 </v>
   <v>      -0.00361500       0.00000839       0.00065179 </v>
   <v>      -0.00373703       0.00152580       0.00105686 </v>
   <v>      -0.00394297       0.00046478       0.00019419 </v>
   <v>      -0.00032837      -0.00028617       0.00129226 </v>
   <v>       0.00116531       0.00166845       0.00197953 </v>
   <v>       0.00063026       0.00236675      -0.00139688 </v>
   <v>       0.00017376      -0.00126891       0.00285102 </v>
   <v>       0.00362079       0.00165423       0.00098175 </v>
   <v>      -0.00225017      -0.00163067       0.00069882 </v>
   <v>       0.00082471      -0.00108732      -0.00099925 </v>
   <v>       0.00188872      -0.00441436      -0.00039284 </v>
   <v>       0.00220695      -0.00224866      -0.00259222 </v>
   <v>      -0.00137400      -0.00082233       0.00209031 </v>
   <v>      -0.00163174      -0.00264768      -0.00124863 </v>
   <v>      -0.00069637       0.00039332      -0.00027074 </v>
   <v>      -0.00380134      -0.00187816       0.00148842 </v>
   <v>      -0.00077301       0.00031313       0.00035902 </v>
   <v>      -0.00001011       0.00141428       0.00037976 </v>
   <v>       0.00267264      -0.00299980       0.00068598 </v>
   <v>       0.00131807       0.00161449      -0.00098371 </v>
   <v>       0.00132185      -0.00010404      -0.00044643 </v>
   <v>      -0.00042455       0.00069718      -0.00073090 </v>
   <v>      -0.00038031      -0.00161701      -0.00327788 </v>
   <v>      -0.00110290      -0.00415311      -0.00029928 </v>
   <v>      -0.00370508       0.00338704       0.00066092 </v>
   <v>      -0.00027553       0.00249283       0.00133370 </v>
   <v>      -0.00054642      -0.00147299       0.00214515 </v>
   <v>       0.00583274       0.00413516      -0.00505495 </v>
   <v>       0.00612866       0.00685717      -0.00327638 </v>
   <v>      -0.00033679       0.00115130       0.00087796 </v>
   <v>       0.00352829      -0.00128022      -0.00090996 </v>
   <v>       0.00265272       0.00001084       0.00111545 </v>
   <v>       0.00569739      -0.00231130       0.00020391 </v>
   <v>      -0.00500414      -0.00547453      -0.00160040 </v>
   <v>      -0.00111587       0.00284900       0.00186154 </v>
   <v>      -0.00064081      -0.00141213       0.00075381 </v>
   <v>      -0.00308165      -0.00194736       0.00092028 </v>
   <v>      -0.00281017       0.00467801      -0.00171030 </v>
   <v>       0.00011416       0.00208165      -0.00019618 </v>
   <v>       0.00052382       0.00410683       0.00076180 </v>
   <v>      -0.00069865       0.00322651       0.00033683 </v>
   <v>       0.00144264       0.00156393      -0.00057298 </v>
   <v>       0.00129093       0.00109699      -0.00038409 </v>
   <v>       0.00604865      -0.00163901       0.00265249 </v>
   <v>       0.00099730      -0.00420145      -0.00092337 </v>
   <v>      -0.00213125      -0.00666451      -0.00213678 </v>
   <v>      -0.00033839      -0.00260799      -0.00090507 </v>
   <v>       0.00020998      -0.00253655      -0.00003020 </v>
   <v>      -0.00389789       0.00565637       0.00241956 </v>
   <v>      -0.00456973      -0.00227790      -0.00232500 </v>
   <v>      -0.00399698      -0.00090858      -0.00140896 </v>
   <v>      -0.00208302       0.00017512      -0.00365203 </v>
   <v>      -0.00069357       0.00094128      -0.00172189 </v>
   <v>       0.00509057       0.00067097       0.00666090 </v>
   <v>      -0.00042608       0.00319279      -0.00174516 </v>
   <v>       0.00095460       0.00069675      -0.00088711 </v>
   <v>       0.00695774      -0.00409105       0.00024441 </v>
   <v>      -0.00403712       0.00117681       0.00469030 </v>
   <v>      -0.00218715      -0.00220803       0.00182556 </v>
   <v>       0.00018050      -0.00161529       0.00005514 </v>
   <v>      -0.00169313      -0.00160956      -0.00233991 </v>
   <v>       0.00621061       0.00366560       0.00253946 </v>
   <v>       0.00169879      -0.00245178      -0.00374353 </v>
   <v>       0.00090418      -0.00143471       0.00030059 </v>
   <v>       0.00223877      -0.00162562       0.00053704 </v>
   <v>       0.00139363      -0.00628603       0.00200918 </v>
   <v>       0.00201255      -0.00501791       0.00008062 </v>
   <v>      -0.00285168       0.00527498       0.00011996 </v>
   <v>      -0.00558034       0.00796581      -0.00044836 </v>
   <v>      -0.00314136       0.00319939       0.00168125 </v>
   <v>       0.00226218      -0.00359235      -0.00037709 </v>
   <v>      -0.00203138      -0.00048255       0.00604930 </v>
   <v>      -0.00329089       0.00146225       0.00043360 </v>
   <v>       0.00408358       0.00142679      -0.00326424 </v>
   <v>       0.00227388       0.00197859      -0.00219491 </v>
   <v>       0.00365788       0.00386594      -0.00283470 </v>
   <v>      -0.00416716       0.00078842      -0.00128384 </v>
  </varray>
  <varray name="stress" >
   <v>       0.00034970      -0.00343396      -0.00026236 </v>
   <v>      -0.00343396       0.01093609      -0.00761325 </v>
   <v>      -0.00026236      -0.00761325      -0.20499587 </v>
  </varray>
  <energy>
   <i name="e_fr_energy">   -615.94047217 </i>
   <i name="e_wo_entrp">   -615.94047217 </i>
   <i name="e_0_energy">     -0.00000000 </i>
  </energy>
  <time name="totalsc">  830.75  838.19</time>
  <eigenvalues>
   <array>
    <dimension dim="1">band</dimension>
    <dimension dim="2">kpoint</dimension>
    <dimension dim="3">spin</dimension>
    <field>eigene</field>
    <field>occ</field>
    <set>
     <set comment="spin 1">
      <set comment="kpoint 1">
       <r>  -23.3547    1.0000 </r>
       <r>  -23.3497    1.0000 </r>
       <r>  -23.3467    1.0000 </r>
       <r>  -22.8996    1.0000 </r>
       <r>  -22.8855    1.0000 </r>
       <r>  -22.8837    1.0000 </r>
       <r>  -21.4697    1.0000 </r>
       <r>  -21.4252    1.0000 </r>
       <r>  -20.1175    1.0000 </r>
       <r>  -20.1169    1.0000 </r>
       <r>  -20.1056    1.0000 </r>
       <r>  -20.1052    1.0000 </r>
       <r>  -19.7685    1.0000 </r>
       <r>  -19.5986    1.0000 </r>
       <r>  -19.5521    1.0000 </r>
       <r>  -19.5435    1.0000 </r>
       <r>  -19.2590    1.0000 </r>
       <r>  -19.2561    1.0000 </r>
       <r>  -19.1773    1.0000 </r>
       <r>  -18.2606    1.0000 </r>
       <r>  -18.1308    1.0000 </r>
       <r>  -18.1297    1.0000 </r>
       <r>  -17.5143    1.0000 </r>
       <r>  -17.5112    1.0000 </r>
       <r>  -16.9869    1.0000 </r>
       <r>  -16.9440    1.0000 </r>
       <r>  -16.9415    1.0000 </r>
       <r>  -16.6367    1.0000 </r>
       <r>  -16.6251    1.0000 </r>
       <r>  -16.6176    1.0000 </r>
       <r>  -15.8723    1.0000 </r>
       <r>  -15.8687    1.0000 </r>
       <r>  -15.6983    1.0000 </r>
       <r>  -15.2777    1.0000 </r>
       <r>  -15.2757    1.0000 </r>
       <r>  -14.8999    1.0000 </r>
       <r>  -14.7161    1.0000 </r>
       <r>  -14.7132    1.0000 </r>
       <r>  -14.5738    1.0000 </r>
       <r>  -14.5687    1.0000 </r>
       <r>  -14.5072    1.0000 </r>
       <r>  -14.4747    1.0000 </r>
       <r>  -13.6546    1.0000 </r>
       <r>  -13.6503    1.0000 </r>
       <r>  -13.5861    1.0000 </r>
       <r>  -13.5858    1.0000 </r>
       <r>  -12.8197    1.0000 </r>
       <r>  -12.5576    1.0000 </r>
       <r>  -12.5135    1.0000 </r>
       <r>  -12.5116    1.0000 </r>
       <r>  -12.3692    1.0000 </r>
       <r>  -12.0515    1.0000 </r>
       <r>  -11.9962    1.0000 </r>
       <r>  -11.9946    1.0000 </r>
       <r>  -11.7631    1.0000 </r>
       <r>  -11.3962    1.0000 </r>
       <r>  -11.3547    1.0000 </r>
       <r>  -11.3359    1.0000 </r>
       <r>  -11.2834    1.0000 </r>
       <r>  -11.0922    1.0000 </r>
       <r>  -11.0892    1.0000 </r>
       <r>  -11.0169    1.0000 </r>
       <r>  -10.5039    1.0000 </r>
       <r>  -10.3301    1.0000 </r>
       <r>  -10.3295    1.0000 </r>
       <r>  -10.2924    1.0000 </r>
       <r>  -10.1929    1.0000 </r>
       <r>  -10.1854    1.0000 </r>
       <r>  -10.1464    1.0000 </r>
       <r>  -10.0263    1.0000 </r>
       <r>  -10.0249    1.0000 </r>
       <r>   -9.7701    1.0000 </r>
       <r>   -9.7589    1.0000 </r>
       <r>   -9.7161    1.0000 </r>
       <r>   -9.6608    1.0000 </r>
       <r>   -9.6577    1.0000 </r>
       <r>   -9.6003    1.0000 </r>
       <r>   -9.4386    1.0000 </r>
       <r>   -9.4358    1.0000 </r>
       <r>   -9.4280    1.0000 </r>
       <r>   -9.3923    1.0000 </r>
       <r>   -9.2294    1.0000 </r>
       <r>   -9.2246    1.0000 </r>
       <r>   -9.1766    1.0000 </r>
       <r>   -9.0792    1.0000 </r>
       <r>   -9.0746    1.0000 </r>
       <r>   -9.0707    1.0000 </r>
       <r>   -9.0369    1.0000 </r>
       <r>   -9.0332    1.0000 </r>
       <r>   -8.9713    1.0000 </r>
       <r>   -8.9602    1.0000 </r>
       <r>   -8.9581    1.0000 </r>
       <r>   -8.9406    1.0000 </r>
       <r>   -8.8862    1.0000 </r>
       <r>   -8.8806    1.0000 </r>
       <r>   -8.7701    1.0000 </r>
       <r>   -8.6963    1.0000 </r>
       <r>   -8.6929    1.0000 </r>
       <r>   -8.6300    1.0000 </r>
       <r>   -8.4266    1.0000 </r>
       <r>   -8.4221    1.0000 </r>
       <r>   -8.4203    1.0000 </r>
       <r>   -8.0392    1.0000 </r>
       <r>   -8.0380    1.0000 </r>
       <r>   -7.9801    1.0000 </r>
       <r>   -7.8237    1.0000 </r>
       <r>   -7.8210    1.0000 </r>
       <r>   -7.4771    1.0000 </r>
       <r>   -7.4688    1.0000 </r>
       <r>   -6.9186    1.0000 </r>
       <r>   -6.9123    1.0000 </r>
       <r>   -6.6740    1.0000 </r>
       <r>   -6.4562    1.0000 </r>
       <r>   -6.2562    1.0000 </r>
       <r>   -6.2531    1.0000 </r>
       <r>   -6.1897    1.0000 </r>
       <r>   -6.1498    1.0000 </r>
       <r>   -6.1437    1.0000 </r>
       <r>   -5.8213    1.0000 </r>
       <r>   -5.8170    1.0000 </r>
       <r>   -5.5116    1.0000 </r>
       <r>   -5.4437    1.0000 </r>
       <r>   -5.4357    1.0000 </r>
       <r>   -5.3413    1.0000 </r>
       <r>   -5.2570    1.0000 </r>
       <r>   -5.2391    1.0000 </r>
       <r>   -5.2316    1.0000 </r>
       <r>   -5.0728    1.0000 </r>
       <r>   -5.0647    1.0000 </r>
       <r>   -2.2704    0.0000 </r>
       <r>   -2.2609    0.0000 </r>
       <r>   -1.8836    0.0000 </r>
       <r>   -1.4864    0.0000 </r>
       <r>   -1.4837    0.0000 </r>
       <r>   -1.2487    0.0000 </r>
       <r>   -1.2351    0.0000 </r>
       <r>   -1.2339    0.0000 </r>
       <r>   -1.1541    0.0000 </r>
       <r>   -1.1131    0.0000 </r>
       <r>   -1.1073    0.0000 </r>
       <r>   -0.5504    0.0000 </r>
       <r>   -0.5403    0.0000 </r>
       <r>   -0.3992    0.0000 </r>
       <r>   -0.2676    0.0000 </r>
       <r>    0.0022    0.0000 </r>
       <r>    0.0545    0.0000 </r>
       <r>    0.0603    0.0000 </r>
       <r>    0.1432    0.0000 </r>
       <r>    0.1459    0.0000 </r>
       <r>    0.2626    0.0000 </r>
       <r>    0.3746    0.0000 </r>
       <r>    0.3827    0.0000 </r>
       <r>    0.5640    0.0000 </r>
       <r>    0.6003    0.0000 </r>
       <r>    0.6038    0.0000 </r>
       <r>    0.6168    0.0000 </r>
       <r>    0.6350    0.0000 </r>
       <r>    0.7372    0.0000 </r>
       <r>    0.7381    0.0000 </r>
       <r>    0.8256    0.0000 </r>
       <r>    0.8507    0.0000 </r>
       <r>    0.8560    0.0000 </r>
       <r>    0.9118    0.0000 </r>
       <r>    1.0032    0.0000 </r>
       <r>    1.0053    0.0000 </r>
       <r>    1.0143    0.0000 </r>
       <r>    1.0446    0.0000 </r>
       <r>    1.0506    0.0000 </r>
       <r>    1.0918    0.0000 </r>
       <r>    1.0932    0.0000 </r>
       <r>    1.0963    0.0000 </r>
       <r>    1.1629    0.0000 </r>
       <r>    1.1739    0.0000 </r>
       <r>    1.2601    0.0000 </r>
       <r>    1.2632    0.0000 </r>
       <r>    1.2674    0.0000 </r>
      </set>
      <set comment="kpoint 2">
       <r>  -23.3547    1.0000 </r>
       <r>  -23.3497    1.0000 </r>
       <r>  -23.3467    1.0000 </r>
       <r>  -22.8996    1.0000 </r>
       <r>  -22.8855    1.0000 </r>
       <r>  -22.8838    1.0000 </r>
       <r>  -21.4696    1.0000 </r>
       <r>  -21.4253    1.0000 </r>
       <r>  -20.1175    1.0000 </r>
       <r>  -20.1169    1.0000 </r>
       <r>  -20.1056    1.0000 </r>
       <r>  -20.1052    1.0000 </r>
       <r>  -19.7682    1.0000 </r>
       <r>  -19.5987    1.0000 </r>
       <r>  -19.5520    1.0000 </r>
       <r>  -19.5435    1.0000 </r>
       <r>  -19.2634    1.0000 </r>
       <r>  -19.2567    1.0000 </r>
       <r>  -19.1719    1.0000 </r>
       <r>  -18.2657    1.0000 </r>
       <r>  -18.1308    1.0000 </r>
       <r>  -18.1248    1.0000 </r>
       <r>  -17.5146    1.0000 </r>
       <r>  -17.5114    1.0000 </r>
       <r>  -16.9868    1.0000 </r>
       <r>  -16.9440    1.0000 </r>
       <r>  -16.9415    1.0000 </r>
       <r>  -16.6367    1.0000 </r>
       <r>  -16.6251    1.0000 </r>
       <r>  -16.6176    1.0000 </r>
       <r>  -15.8722    1.0000 </r>
       <r>  -15.8687    1.0000 </r>
       <r>  -15.6987    1.0000 </r>
       <r>  -15.2775    1.0000 </r>
       <r>  -15.2748    1.0000 </r>
       <r>  -14.8999    1.0000 </r>
       <r>  -14.7173    1.0000 </r>
       <r>  -14.7141    1.0000 </r>
       <r>  -14.5750    1.0000 </r>
       <r>  -14.5698    1.0000 </r>
       <r>  -14.5041    1.0000 </r>
       <r>  -14.4740    1.0000 </r>
       <r>  -13.6553    1.0000 </r>
       <r>  -13.6507    1.0000 </r>
       <r>  -13.5858    1.0000 </r>
       <r>  -13.5853    1.0000 </r>
       <r>  -12.8197    1.0000 </r>
       <r>  -12.5587    1.0000 </r>
       <r>  -12.5126    1.0000 </r>
       <r>  -12.5110    1.0000 </r>
       <r>  -12.3687    1.0000 </r>
       <r>  -12.0529    1.0000 </r>
       <r>  -11.9963    1.0000 </r>
       <r>  -11.9949    1.0000 </r>
       <r>  -11.7619    1.0000 </r>
       <r>  -11.3963    1.0000 </r>
       <r>  -11.3551    1.0000 </r>
       <r>  -11.3362    1.0000 </r>
       <r>  -11.2840    1.0000 </r>
       <r>  -11.0912    1.0000 </r>
       <r>  -11.0884    1.0000 </r>
       <r>  -11.0168    1.0000 </r>
       <r>  -10.5041    1.0000 </r>
       <r>  -10.3357    1.0000 </r>
       <r>  -10.3300    1.0000 </r>
       <r>  -10.2867    1.0000 </r>
       <r>  -10.1929    1.0000 </r>
       <r>  -10.1854    1.0000 </r>
       <r>  -10.1462    1.0000 </r>
       <r>  -10.0264    1.0000 </r>
       <r>  -10.0249    1.0000 </r>
       <r>   -9.7701    1.0000 </r>
       <r>   -9.7589    1.0000 </r>
       <r>   -9.7162    1.0000 </r>
       <r>   -9.6608    1.0000 </r>
       <r>   -9.6577    1.0000 </r>
       <r>   -9.6003    1.0000 </r>
       <r>   -9.4387    1.0000 </r>
       <r>   -9.4358    1.0000 </r>
       <r>   -9.4279    1.0000 </r>
       <r>   -9.3922    1.0000 </r>
       <r>   -9.2295    1.0000 </r>
       <r>   -9.2246    1.0000 </r>
       <r>   -9.1764    1.0000 </r>
       <r>   -9.0803    1.0000 </r>
       <r>   -9.0739    1.0000 </r>
       <r>   -9.0706    1.0000 </r>
       <r>   -9.0369    1.0000 </r>
       <r>   -9.0331    1.0000 </r>
       <r>   -8.9715    1.0000 </r>
       <r>   -8.9600    1.0000 </r>
       <r>   -8.9580    1.0000 </r>
       <r>   -8.9406    1.0000 </r>
       <r>   -8.8864    1.0000 </r>
       <r>   -8.8806    1.0000 </r>
       <r>   -8.7701    1.0000 </r>
       <r>   -8.6962    1.0000 </r>
       <r>   -8.6929    1.0000 </r>
       <r>   -8.6300    1.0000 </r>
       <r>   -8.4305    1.0000 </r>
       <r>   -8.4256    1.0000 </r>
       <r>   -8.4129    1.0000 </r>
       <r>   -8.0399    1.0000 </r>
       <r>   -8.0383    1.0000 </r>
       <r>   -7.9791    1.0000 </r>
       <r>   -7.8238    1.0000 </r>
       <r>   -7.8210    1.0000 </r>
       <r>   -7.4770    1.0000 </r>
       <r>   -7.4686    1.0000 </r>
       <r>   -6.9193    1.0000 </r>
       <r>   -6.9127    1.0000 </r>
       <r>   -6.6730    1.0000 </r>
       <r>   -6.4563    1.0000 </r>
       <r>   -6.2562    1.0000 </r>
       <r>   -6.2530    1.0000 </r>
       <r>   -6.1903    1.0000 </r>
       <r>   -6.1490    1.0000 </r>
       <r>   -6.1435    1.0000 </r>
       <r>   -5.8213    1.0000 </r>
       <r>   -5.8175    1.0000 </r>
       <r>   -5.5116    1.0000 </r>
       <r>   -5.4442    1.0000 </r>
       <r>   -5.4358    1.0000 </r>
       <r>   -5.3408    1.0000 </r>
       <r>   -5.2569    1.0000 </r>
       <r>   -5.2390    1.0000 </r>
       <r>   -5.2316    1.0000 </r>
       <r>   -5.0729    1.0000 </r>
       <r>   -5.0647    1.0000 </r>
       <r>   -2.2703    0.0000 </r>
       <r>   -2.2607    0.0000 </r>
       <r>   -1.8846    0.0000 </r>
       <r>   -1.4863    0.0000 </r>
       <r>   -1.4828    0.0000 </r>
       <r>   -1.2488    0.0000 </r>
       <r>   -1.2350    0.0000 </r>
       <r>   -1.2336    0.0000 </r>
       <r>   -1.1543    0.0000 </r>
       <r>   -1.1131    0.0000 </r>
       <r>   -1.1071    0.0000 </r>
       <r>   -0.5524    0.0000 </r>
       <r>   -0.5420    0.0000 </r>
       <r>   -0.3957    0.0000 </r>
       <r>   -0.2674    0.0000 </r>
       <r>   -0.0003    0.0000 </r>
       <r>    0.0561    0.0000 </r>
       <r>    0.0599    0.0000 </r>
       <r>    0.1440    0.0000 </r>
       <r>    0.1469    0.0000 </r>
       <r>    0.2628    0.0000 </r>
       <r>    0.3744    0.0000 </r>
       <r>    0.3827    0.0000 </r>
       <r>    0.5628    0.0000 </r>
       <r>    0.5970    0.0000 </r>
       <r>    0.6038    0.0000 </r>
       <r>    0.6208    0.0000 </r>
       <r>    0.6353    0.0000 </r>
       <r>    0.7368    0.0000 </r>
       <r>    0.7380    0.0000 </r>
       <r>    0.8229    0.0000 </r>
       <r>    0.8504    0.0000 </r>
       <r>    0.8579    0.0000 </r>
       <r>    0.9118    0.0000 </r>
       <r>    0.9919    0.0000 </r>
       <r>    1.0048    0.0000 </r>
       <r>    1.0246    0.0000 </r>
       <r>    1.0448    0.0000 </r>
       <r>    1.0510    0.0000 </r>
       <r>    1.0917    0.0000 </r>
       <r>    1.0948    0.0000 </r>
       <r>    1.0987    0.0000 </r>
       <r>    1.1641    0.0000 </r>
       <r>    1.1741    0.0000 </r>
       <r>    1.2569    0.0000 </r>
       <r>    1.2634    0.0000 </r>
       <r>    1.2688    0.0000 </r>
      </set>
      <set comment="kpoint 3">
       <r>  -23.3547    1.0000 </r>
       <r>  -23.3497    1.0000 </r>
       <r>  -23.3467    1.0000 </r>
       <r>  -22.8995    1.0000 </r>
       <r>  -22.8856    1.0000 </r>
       <r>  -22.8838    1.0000 </r>
       <r>  -21.4694    1.0000 </r>
       <r>  -21.4254    1.0000 </r>
       <r>  -20.1175    1.0000 </r>
       <r>  -20.1169    1.0000 </r>
       <r>  -20.1056    1.0000 </r>
       <r>  -20.1052    1.0000 </r>
       <r>  -19.7672    1.0000 </r>
       <r>  -19.5990    1.0000 </r>
       <r>  -19.5519    1.0000 </r>
       <r>  -19.5435    1.0000 </r>
       <r>  -19.2753    1.0000 </r>
       <r>  -19.2569    1.0000 </r>
       <r>  -19.1585    1.0000 </r>
       <r>  -18.2791    1.0000 </r>
       <r>  -18.1308    1.0000 </r>
       <r>  -18.1118    1.0000 </r>
       <r>  -17.5158    1.0000 </r>
       <r>  -17.5118    1.0000 </r>
       <r>  -16.9866    1.0000 </r>
       <r>  -16.9441    1.0000 </r>
       <r>  -16.9416    1.0000 </r>
       <r>  -16.6366    1.0000 </r>
       <r>  -16.6252    1.0000 </r>
       <r>  -16.6177    1.0000 </r>
       <r>  -15.8720    1.0000 </r>
       <r>  -15.8684    1.0000 </r>
       <r>  -15.7002    1.0000 </r>
       <r>  -15.2770    1.0000 </r>
       <r>  -15.2719    1.0000 </r>
       <r>  -14.8997    1.0000 </r>
       <r>  -14.7209    1.0000 </r>
       <r>  -14.7167    1.0000 </r>
       <r>  -14.5817    1.0000 </r>
       <r>  -14.5685    1.0000 </r>
       <r>  -14.4963    1.0000 </r>
       <r>  -14.4719    1.0000 </r>
       <r>  -13.6575    1.0000 </r>
       <r>  -13.6520    1.0000 </r>
       <r>  -13.5850    1.0000 </r>
       <r>  -13.5837    1.0000 </r>
       <r>  -12.8196    1.0000 </r>
       <r>  -12.5617    1.0000 </r>
       <r>  -12.5122    1.0000 </r>
       <r>  -12.5072    1.0000 </r>
       <r>  -12.3675    1.0000 </r>
       <r>  -12.0567    1.0000 </r>
       <r>  -11.9978    1.0000 </r>
       <r>  -11.9945    1.0000 </r>
       <r>  -11.7586    1.0000 </r>
       <r>  -11.3965    1.0000 </r>
       <r>  -11.3562    1.0000 </r>
       <r>  -11.3371    1.0000 </r>
       <r>  -11.2859    1.0000 </r>
       <r>  -11.0903    1.0000 </r>
       <r>  -11.0843    1.0000 </r>
       <r>  -11.0165    1.0000 </r>
       <r>  -10.5045    1.0000 </r>
       <r>  -10.3487    1.0000 </r>
       <r>  -10.3302    1.0000 </r>
       <r>  -10.2752    1.0000 </r>
       <r>  -10.1927    1.0000 </r>
       <r>  -10.1854    1.0000 </r>
       <r>  -10.1458    1.0000 </r>
       <r>  -10.0268    1.0000 </r>
       <r>  -10.0251    1.0000 </r>
       <r>   -9.7700    1.0000 </r>
       <r>   -9.7589    1.0000 </r>
       <r>   -9.7164    1.0000 </r>
       <r>   -9.6607    1.0000 </r>
       <r>   -9.6576    1.0000 </r>
       <r>   -9.6003    1.0000 </r>
       <r>   -9.4388    1.0000 </r>
       <r>   -9.4359    1.0000 </r>
       <r>   -9.4276    1.0000 </r>
       <r>   -9.3921    1.0000 </r>
       <r>   -9.2296    1.0000 </r>
       <r>   -9.2247    1.0000 </r>
       <r>   -9.1759    1.0000 </r>
       <r>   -9.0825    1.0000 </r>
       <r>   -9.0732    1.0000 </r>
       <r>   -9.0702    1.0000 </r>
       <r>   -9.0368    1.0000 </r>
       <r>   -9.0327    1.0000 </r>
       <r>   -8.9720    1.0000 </r>
       <r>   -8.9596    1.0000 </r>
       <r>   -8.9575    1.0000 </r>
       <r>   -8.9405    1.0000 </r>
       <r>   -8.8868    1.0000 </r>
       <r>   -8.8807    1.0000 </r>
       <r>   -8.7701    1.0000 </r>
       <r>   -8.6959    1.0000 </r>
       <r>   -8.6928    1.0000 </r>
       <r>   -8.6301    1.0000 </r>
       <r>   -8.4386    1.0000 </r>
       <r>   -8.4258    1.0000 </r>
       <r>   -8.4042    1.0000 </r>
       <r>   -8.0430    1.0000 </r>
       <r>   -8.0382    1.0000 </r>
       <r>   -7.9763    1.0000 </r>
       <r>   -7.8240    1.0000 </r>
       <r>   -7.8211    1.0000 </r>
       <r>   -7.4769    1.0000 </r>
       <r>   -7.4680    1.0000 </r>
       <r>   -6.9216    1.0000 </r>
       <r>   -6.9136    1.0000 </r>
       <r>   -6.6701    1.0000 </r>
       <r>   -6.4567    1.0000 </r>
       <r>   -6.2561    1.0000 </r>
       <r>   -6.2530    1.0000 </r>
       <r>   -6.1921    1.0000 </r>
       <r>   -6.1469    1.0000 </r>
       <r>   -6.1429    1.0000 </r>
       <r>   -5.8213    1.0000 </r>
       <r>   -5.8189    1.0000 </r>
       <r>   -5.5115    1.0000 </r>
       <r>   -5.4454    1.0000 </r>
       <r>   -5.4359    1.0000 </r>
       <r>   -5.3395    1.0000 </r>
       <r>   -5.2566    1.0000 </r>
       <r>   -5.2388    1.0000 </r>
       <r>   -5.2313    1.0000 </r>
       <r>   -5.0733    1.0000 </r>
       <r>   -5.0648    1.0000 </r>
       <r>   -2.2702    0.0000 </r>
       <r>   -2.2599    0.0000 </r>
       <r>   -1.8877    0.0000 </r>
       <r>   -1.4862    0.0000 </r>
       <r>   -1.4797    0.0000 </r>
       <r>   -1.2492    0.0000 </r>
       <r>   -1.2348    0.0000 </r>
       <r>   -1.2329    0.0000 </r>
       <r>   -1.1547    0.0000 </r>
       <r>   -1.1134    0.0000 </r>
       <r>   -1.1064    0.0000 </r>
       <r>   -0.5606    0.0000 </r>
       <r>   -0.5442    0.0000 </r>
       <r>   -0.3863    0.0000 </r>
       <r>   -0.2668    0.0000 </r>
       <r>   -0.0068    0.0000 </r>
       <r>    0.0572    0.0000 </r>
       <r>    0.0617    0.0000 </r>
       <r>    0.1461    0.0000 </r>
       <r>    0.1498    0.0000 </r>
       <r>    0.2633    0.0000 </r>
       <r>    0.3737    0.0000 </r>
       <r>    0.3826    0.0000 </r>
       <r>    0.5590    0.0000 </r>
       <r>    0.5913    0.0000 </r>
       <r>    0.6039    0.0000 </r>
       <r>    0.6282    0.0000 </r>
       <r>    0.6366    0.0000 </r>
       <r>    0.7352    0.0000 </r>
       <r>    0.7381    0.0000 </r>
       <r>    0.8169    0.0000 </r>
       <r>    0.8488    0.0000 </r>
       <r>    0.8617    0.0000 </r>
       <r>    0.9121    0.0000 </r>
       <r>    0.9760    0.0000 </r>
       <r>    1.0047    0.0000 </r>
       <r>    1.0329    0.0000 </r>
       <r>    1.0450    0.0000 </r>
       <r>    1.0553    0.0000 </r>
       <r>    1.0923    0.0000 </r>
       <r>    1.0998    0.0000 </r>
       <r>    1.1043    0.0000 </r>
       <r>    1.1660    0.0000 </r>
       <r>    1.1758    0.0000 </r>
       <r>    1.2506    0.0000 </r>
       <r>    1.2616    0.0000 </r>
       <r>    1.2719    0.0000 </r>
      </set>
      <set comment="kpoint 4">
       <r>  -23.3546    1.0000 </r>
       <r>  -23.3497    1.0000 </r>
       <r>  -23.3467    1.0000 </r>
       <r>  -22.8994    1.0000 </r>
       <r>  -22.8857    1.0000 </r>
       <r>  -22.8838    1.0000 </r>
       <r>  -21.4691    1.0000 </r>
       <r>  -21.4258    1.0000 </r>
       <r>  -20.1175    1.0000 </r>
       <r>  -20.1169    1.0000 </r>
       <r>  -20.1056    1.0000 </r>
       <r>  -20.1052    1.0000 </r>
       <r>  -19.7656    1.0000 </r>
       <r>  -19.5994    1.0000 </r>
       <r>  -19.5517    1.0000 </r>
       <r>  -19.5435    1.0000 </r>
       <r>  -19.2908    1.0000 </r>
       <r>  -19.2569    1.0000 </r>
       <r>  -19.1410    1.0000 </r>
       <r>  -18.2977    1.0000 </r>
       <r>  -18.1309    1.0000 </r>
       <r>  -18.0939    1.0000 </r>
       <r>  -17.5183    1.0000 </r>
       <r>  -17.5121    1.0000 </r>
       <r>  -16.9861    1.0000 </r>
       <r>  -16.9443    1.0000 </r>
       <r>  -16.9418    1.0000 </r>
       <r>  -16.6365    1.0000 </r>
       <r>  -16.6253    1.0000 </r>
       <r>  -16.6179    1.0000 </r>
       <r>  -15.8716    1.0000 </r>
       <r>  -15.8680    1.0000 </r>
       <r>  -15.7025    1.0000 </r>
       <r>  -15.2763    1.0000 </r>
       <r>  -15.2670    1.0000 </r>
       <r>  -14.8995    1.0000 </r>
       <r>  -14.7270    1.0000 </r>
       <r>  -14.7209    1.0000 </r>
       <r>  -14.5912    1.0000 </r>
       <r>  -14.5650    1.0000 </r>
       <r>  -14.4871    1.0000 </r>
       <r>  -14.4676    1.0000 </r>
       <r>  -13.6608    1.0000 </r>
       <r>  -13.6539    1.0000 </r>
       <r>  -13.5837    1.0000 </r>
       <r>  -13.5814    1.0000 </r>
       <r>  -12.8196    1.0000 </r>
       <r>  -12.5658    1.0000 </r>
       <r>  -12.5121    1.0000 </r>
       <r>  -12.5012    1.0000 </r>
       <r>  -12.3655    1.0000 </r>
       <r>  -12.0626    1.0000 </r>
       <r>  -12.0010    1.0000 </r>
       <r>  -11.9934    1.0000 </r>
       <r>  -11.7532    1.0000 </r>
       <r>  -11.3970    1.0000 </r>
       <r>  -11.3582    1.0000 </r>
       <r>  -11.3386    1.0000 </r>
       <r>  -11.2888    1.0000 </r>
       <r>  -11.0900    1.0000 </r>
       <r>  -11.0766    1.0000 </r>
       <r>  -11.0160    1.0000 </r>
       <r>  -10.5052    1.0000 </r>
       <r>  -10.3638    1.0000 </r>
       <r>  -10.3304    1.0000 </r>
       <r>  -10.2623    1.0000 </r>
       <r>  -10.1925    1.0000 </r>
       <r>  -10.1854    1.0000 </r>
       <r>  -10.1451    1.0000 </r>
       <r>  -10.0274    1.0000 </r>
       <r>  -10.0253    1.0000 </r>
       <r>   -9.7699    1.0000 </r>
       <r>   -9.7589    1.0000 </r>
       <r>   -9.7168    1.0000 </r>
       <r>   -9.6604    1.0000 </r>
       <r>   -9.6575    1.0000 </r>
       <r>   -9.6003    1.0000 </r>
       <r>   -9.4390    1.0000 </r>
       <r>   -9.4360    1.0000 </r>
       <r>   -9.4272    1.0000 </r>
       <r>   -9.3919    1.0000 </r>
       <r>   -9.2298    1.0000 </r>
       <r>   -9.2249    1.0000 </r>
       <r>   -9.1752    1.0000 </r>
       <r>   -9.0851    1.0000 </r>
       <r>   -9.0734    1.0000 </r>
       <r>   -9.0691    1.0000 </r>
       <r>   -9.0367    1.0000 </r>
       <r>   -9.0321    1.0000 </r>
       <r>   -8.9728    1.0000 </r>
       <r>   -8.9592    1.0000 </r>
       <r>   -8.9567    1.0000 </r>
       <r>   -8.9403    1.0000 </r>
       <r>   -8.8875    1.0000 </r>
       <r>   -8.8807    1.0000 </r>
       <r>   -8.7701    1.0000 </r>
       <r>   -8.6956    1.0000 </r>
       <r>   -8.6927    1.0000 </r>
       <r>   -8.6301    1.0000 </r>
       <r>   -8.4468    1.0000 </r>
       <r>   -8.4259    1.0000 </r>
       <r>   -8.3954    1.0000 </r>
       <r>   -8.0480    1.0000 </r>
       <r>   -8.0377    1.0000 </r>
       <r>   -7.9722    1.0000 </r>
       <r>   -7.8244    1.0000 </r>
       <r>   -7.8213    1.0000 </r>
       <r>   -7.4767    1.0000 </r>
       <r>   -7.4668    1.0000 </r>
       <r>   -6.9262    1.0000 </r>
       <r>   -6.9143    1.0000 </r>
       <r>   -6.6654    1.0000 </r>
       <r>   -6.4573    1.0000 </r>
       <r>   -6.2561    1.0000 </r>
       <r>   -6.2528    1.0000 </r>
       <r>   -6.1946    1.0000 </r>
       <r>   -6.1453    1.0000 </r>
       <r>   -6.1405    1.0000 </r>
       <r>   -5.8220    1.0000 </r>
       <r>   -5.8206    1.0000 </r>
       <r>   -5.5113    1.0000 </r>
       <r>   -5.4475    1.0000 </r>
       <r>   -5.4360    1.0000 </r>
       <r>   -5.3374    1.0000 </r>
       <r>   -5.2562    1.0000 </r>
[...]
       <r>   -22.5058     0.0000    12.0000 </r>
       <r>   -22.4151     0.0000    12.0000 </r>
       <r>   -22.3245     0.0000    12.0000 </r>
       <r>   -22.2338     0.0000    12.0000 </r>
       <r>   -22.1431     0.0000    12.0000 </r>
       <r>   -22.0525     0.0000    12.0000 </r>
       <r>   -21.9618     0.0000    12.0000 </r>
       <r>   -21.8712     0.0000    12.0000 </r>
       <r>   -21.7805     0.0000    12.0000 </r>
       <r>   -21.6898     0.0000    12.0000 </r>
       <r>   -21.5992     0.0000    12.0000 </r>
       <r>   -21.5085     0.0000    12.0000 </r>
       <r>   -21.4179    43.3296    15.9283 </r>
       <r>   -21.3272     0.0000    16.0000 </r>
       <r>   -21.2365     0.0000    16.0000 </r>
       <r>   -21.1459     0.0000    16.0000 </r>
       <r>   -21.0552     0.0000    16.0000 </r>
       <r>   -20.9645     0.0000    16.0000 </r>
       <r>   -20.8739     0.0000    16.0000 </r>
       <r>   -20.7832     0.0000    16.0000 </r>
       <r>   -20.6926     0.0000    16.0000 </r>
       <r>   -20.6019     0.0000    16.0000 </r>
       <r>   -20.5112     0.0000    16.0000 </r>
       <r>   -20.4206     0.0000    16.0000 </r>
       <r>   -20.3299     0.0000    16.0000 </r>
       <r>   -20.2393     0.0000    16.0000 </r>
       <r>   -20.1486     0.0003    16.0000 </r>
       <r>   -20.0579    88.2407    24.0000 </r>
       <r>   -19.9673     0.0000    24.0000 </r>
       <r>   -19.8766     0.0000    24.0000 </r>
       <r>   -19.7860     0.0137    24.0012 </r>
       <r>   -19.6953    13.9434    25.2654 </r>
       <r>   -19.6046    21.8083    27.5483 </r>
       <r>   -19.5140    43.8872    31.9788 </r>
       <r>   -19.4233    11.6590    33.2618 </r>
       <r>   -19.3327     3.5847    33.6263 </r>
       <r>   -19.2420    25.3150    35.9623 </r>
       <r>   -19.1513     2.0288    36.1839 </r>
       <r>   -19.0607     2.4540    36.4559 </r>
       <r>   -18.9700     2.3284    36.7111 </r>
       <r>   -18.8794     2.6477    36.9738 </r>
       <r>   -18.7887     7.2024    37.6863 </r>
       <r>   -18.6980     5.1774    38.2048 </r>
       <r>   -18.6074     7.3976    38.9385 </r>
       <r>   -18.5167     2.6655    39.2094 </r>
       <r>   -18.4260     2.2515    39.4386 </r>
       <r>   -18.3354     2.2689    39.6745 </r>
       <r>   -18.2447     3.2949    39.9991 </r>
       <r>   -18.1541     0.0191    40.0017 </r>
       <r>   -18.0634    25.4567    42.3097 </r>
       <r>   -17.9727     2.5284    42.5641 </r>
       <r>   -17.8821     2.8358    42.8261 </r>
       <r>   -17.7914     6.5347    43.4592 </r>
       <r>   -17.7008     6.4009    44.1477 </r>
       <r>   -17.6101     9.4702    45.0935 </r>
       <r>   -17.5194     9.3314    45.9812 </r>
       <r>   -17.4288     5.5649    48.0000 </r>
       <r>   -17.3381     0.0000    48.0000 </r>
       <r>   -17.2475     0.0000    48.0000 </r>
       <r>   -17.1568     0.0000    48.0000 </r>
       <r>   -17.0661     0.0000    48.0000 </r>
       <r>   -16.9755    10.0558    48.9117 </r>
       <r>   -16.8848    44.0948    54.0000 </r>
       <r>   -16.7942     0.0000    54.0000 </r>
       <r>   -16.7035     0.0000    54.0000 </r>
       <r>   -16.6128    63.0788    59.7188 </r>
       <r>   -16.5222     0.0000    60.0000 </r>
       <r>   -16.4315     0.0000    60.0000 </r>
       <r>   -16.3409     0.0000    60.0000 </r>
       <r>   -16.2502     0.0000    60.0000 </r>
       <r>   -16.1595     0.0000    60.0000 </r>
       <r>   -16.0689     0.0000    60.0000 </r>
       <r>   -15.9782     0.0000    60.0000 </r>
       <r>   -15.8875     0.1175    60.0107 </r>
       <r>   -15.7969    44.0958    64.0084 </r>
       <r>   -15.7062    19.0210    65.7329 </r>
       <r>   -15.6156     0.0000    66.0000 </r>
       <r>   -15.5249     0.0000    66.0000 </r>
       <r>   -15.4342     0.0000    66.0000 </r>
       <r>   -15.3436     0.0000    66.0000 </r>
       <r>   -15.2529    18.2860    67.6578 </r>
       <r>   -15.1623     3.9536    68.7604 </r>
       <r>   -15.0716     3.5109    69.1188 </r>
       <r>   -14.9809    11.7959    70.2439 </r>
       <r>   -14.8903    15.8958    71.8787 </r>
       <r>   -14.7996    23.4178    74.4672 </r>
       <r>   -14.7090    20.2761    76.5071 </r>
       <r>   -14.6183    10.7249    77.6071 </r>
       <r>   -14.5276    13.2152    78.8984 </r>
       <r>   -14.4370    20.8143    80.9894 </r>
       <r>   -14.3463    27.6202    83.8437 </r>
       <r>   -14.2557     0.0000    84.0000 </r>
       <r>   -14.1650     0.0000    84.0000 </r>
       <r>   -14.0743     0.0000    84.0000 </r>
       <r>   -13.9837     0.0000    84.0000 </r>
       <r>   -13.8930     0.0000    84.0000 </r>
       <r>   -13.8023     0.0000    84.0000 </r>
       <r>   -13.7117    13.4920    85.2232 </r>
       <r>   -13.6210    30.2554    88.0812 </r>
       <r>   -13.5304    34.8260    91.4257 </r>
       <r>   -13.4397     1.7259    92.0000 </r>
       <r>   -13.3490     0.0000    92.0000 </r>
       <r>   -13.2584     0.0000    92.0000 </r>
       <r>   -13.1677     0.0000    92.0000 </r>
       <r>   -13.0771     0.0000    92.0000 </r>
       <r>   -12.9864     0.0000    92.0000 </r>
       <r>   -12.8957     0.0000    92.0000 </r>
       <r>   -12.8051    21.3503    93.9356 </r>
       <r>   -12.7144     0.0000    94.0000 </r>
       <r>   -12.6238     0.4793    94.0435 </r>
       <r>   -12.5331    21.6299    96.0044 </r>
       <r>   -12.4424    28.8798    98.6227 </r>
       <r>   -12.3518    14.3412   100.0007 </r>
       <r>   -12.2611    19.0707   102.0000 </r>
       <r>   -12.1705    12.7071   103.1520 </r>
       <r>   -12.0798    17.7380   104.8101 </r>
       <r>   -11.9891    19.3569   106.6923 </r>
       <r>   -11.8985     0.0000   108.0000 </r>
       <r>   -11.8078     0.0000   108.0000 </r>
       <r>   -11.7172     5.1189   108.4641 </r>
       <r>   -11.6265     4.7284   108.9310 </r>
       <r>   -11.5358    11.0209   110.0000 </r>
       <r>   -11.4452    11.9915   111.0872 </r>
       <r>   -11.3545    46.1424   115.3515 </r>
       <r>   -11.2638    22.6800   117.9996 </r>
       <r>   -11.1732     0.0000   118.0000 </r>
       <r>   -11.0825    17.0885   119.5493 </r>
       <r>   -10.9919    25.5187   122.5489 </r>
       <r>   -10.9012     2.9790   122.8710 </r>
       <r>   -10.8105     6.9156   123.5603 </r>
       <r>   -10.7199     5.7986   124.1614 </r>
       <r>   -10.6292     8.4969   124.9728 </r>
       <r>   -10.5386     3.4377   125.3452 </r>
       <r>   -10.4479    22.3370   127.4274 </r>
       <r>   -10.3572     3.4212   127.8102 </r>
       <r>   -10.2666    25.6937   130.1994 </r>
       <r>   -10.1759    41.0290   133.9867 </r>
       <r>   -10.0853    35.3399   137.8391 </r>
       <r>    -9.9946    43.9854   142.0000 </r>
       <r>    -9.9039     0.0000   142.0000 </r>
       <r>    -9.8133     0.0000   142.0000 </r>
       <r>    -9.7226    57.7496   147.2356 </r>
       <r>    -9.6320    44.0671   151.9952 </r>
       <r>    -9.5413    22.0602   154.0000 </r>
       <r>    -9.4506     2.8822   154.2613 </r>
       <r>    -9.3600    70.7081   161.9992 </r>
       <r>    -9.2693     0.0001   162.0000 </r>
       <r>    -9.1786    45.7174   166.1448 </r>
       <r>    -9.0880    49.7179   171.0494 </r>
       <r>    -8.9973    69.2785   177.8933 </r>
       <r>    -8.9067   101.3697   187.1944 </r>
       <r>    -8.8160    27.8857   190.0000 </r>
       <r>    -8.7253    22.0603   192.0000 </r>
       <r>    -8.6347    45.9174   196.1629 </r>
       <r>    -8.5440    24.0704   198.9200 </r>
       <r>    -8.4534     7.3355   199.7348 </r>
       <r>    -8.3627    29.1394   202.4447 </r>
       <r>    -8.2720     7.4416   203.1766 </r>
       <r>    -8.1814     9.6872   204.3162 </r>
       <r>    -8.0907    10.5481   205.4279 </r>
       <r>    -8.0001    27.5587   207.9999 </r>
       <r>    -7.9094    10.5269   208.9546 </r>
       <r>    -7.8187    46.7974   213.5199 </r>
       <r>    -7.7281     0.0000   214.0000 </r>
       <r>    -7.6374     0.0000   214.0000 </r>
       <r>    -7.5468     0.0000   214.0000 </r>
       <r>    -7.4561    27.4719   216.4906 </r>
       <r>    -7.3654    14.3084   218.0000 </r>
       <r>    -7.2748     0.0000   218.0000 </r>
       <r>    -7.1841     0.0000   218.0000 </r>
       <r>    -7.0935     0.0000   218.0000 </r>
       <r>    -7.0028    13.9861   219.2680 </r>
       <r>    -6.9121    20.9452   221.2335 </r>
       <r>    -6.8215     0.0000   222.0000 </r>
       <r>    -6.7308     0.0000   222.0000 </r>
       <r>    -6.6401     4.7474   222.4304 </r>
       <r>    -6.5495     9.4376   223.3568 </r>
       <r>    -6.4588    22.8776   225.7112 </r>
       <r>    -6.3682     0.0000   226.0000 </r>
       <r>    -6.2775     0.0200   226.0018 </r>
       <r>    -6.1868    65.3688   231.9282 </r>
       <r>    -6.0962    28.8935   234.6195 </r>
       <r>    -6.0055    11.7755   235.7693 </r>
       <r>    -5.9149     9.5926   236.8697 </r>
       <r>    -5.8242    13.9129   238.2960 </r>
       <r>    -5.7335     0.0000   240.0000 </r>
       <r>    -5.6429     0.0000   240.0000 </r>
       <r>    -5.5522     0.0000   240.0000 </r>
       <r>    -5.4616    38.4659   243.4873 </r>
       <r>    -5.3709    25.6612   246.0000 </r>
       <r>    -5.2802    22.0615   248.0001 </r>
       <r>    -5.1896    60.6234   253.4963 </r>
       <r>    -5.0989     9.1975   254.8339 </r>
       <r>    -5.0083    30.1018   258.0000 </r>
       <r>    -4.9176     0.0000   258.0000 </r>
       <r>    -4.8269     0.0000   258.0000 </r>
       <r>    -4.7363     0.0000   258.0000 </r>
       <r>    -4.6456     0.0000   258.0000 </r>
       <r>    -4.5549     0.0000   258.0000 </r>
       <r>    -4.4643     0.0000   258.0000 </r>
       <r>    -4.3736     0.0000   258.0000 </r>
       <r>    -4.2830     0.0000   258.0000 </r>
       <r>    -4.1923     0.0000   258.0000 </r>
       <r>    -4.1016     0.0000   258.0000 </r>
       <r>    -4.0110     0.0000   258.0000 </r>
       <r>    -3.9203     0.0000   258.0000 </r>
       <r>    -3.8297     0.0000   258.0000 </r>
       <r>    -3.7390     0.0000   258.0000 </r>
       <r>    -3.6483     0.0000   258.0000 </r>
       <r>    -3.5577     0.0000   258.0000 </r>
       <r>    -3.4670     0.0000   258.0000 </r>
       <r>    -3.3764     0.0000   258.0000 </r>
       <r>    -3.2857     0.0000   258.0000 </r>
       <r>    -3.1950     0.0000   258.0000 </r>
       <r>    -3.1044     0.0000   258.0000 </r>
       <r>    -3.0137     0.0000   258.0000 </r>
       <r>    -2.9231     0.0000   258.0000 </r>
       <r>    -2.8324     0.0000   258.0000 </r>
       <r>    -2.7417     0.0000   258.0000 </r>
       <r>    -2.6511     0.0000   258.0000 </r>
       <r>    -2.5604     0.0000   258.0000 </r>
       <r>    -2.4698     0.0000   258.0000 </r>
       <r>    -2.3791     0.0000   258.0000 </r>
       <r>    -2.2884     0.0407   258.0037 </r>
       <r>    -2.1978    38.6885   261.5112 </r>
       <r>    -2.1071     0.0000   262.0000 </r>
       <r>    -2.0164    10.2985   262.9337 </r>
       <r>    -1.9258     5.1612   263.5354 </r>
       <r>    -1.8351     4.3914   264.0000 </r>
       <r>    -1.7445     0.0000   264.0000 </r>
       <r>    -1.6538     0.0000   264.0000 </r>
       <r>    -1.5631     0.0000   264.0000 </r>
       <r>    -1.4725    24.3984   266.2120 </r>
       <r>    -1.3818     4.8618   266.7750 </r>
       <r>    -1.2912    12.7762   268.0252 </r>
       <r>    -1.2005    53.2306   273.0316 </r>
       <r>    -1.1098    43.3314   277.9387 </r>
       <r>    -1.0192    13.6482   279.6416 </r>
       <r>    -0.9285     1.7706   280.0000 </r>
       <r>    -0.8379     9.1382   280.8285 </r>
       <r>    -0.7472     3.1712   281.2546 </r>
       <r>    -0.6565     2.3893   281.5166 </r>
       <r>    -0.5659     2.8309   281.8233 </r>
       <r>    -0.4752    23.3838   284.0000 </r>
       <r>    -0.3846     1.7737   284.1608 </r>
       <r>    -0.2939     3.3746   284.5076 </r>
       <r>    -0.2032    21.9364   286.5555 </r>
       <r>    -0.1126    24.1620   289.1949 </r>
       <r>    -0.0219     6.9683   289.9002 </r>
       <r>     0.0687    21.7716   292.2133 </r>
       <r>     0.1594    24.0150   294.5487 </r>
       <r>     0.2501    20.4857   296.6920 </r>
       <r>     0.3407    39.0782   300.3885 </r>
       <r>     0.4314    36.9117   304.6288 </r>
       <r>     0.5221    23.1335   306.8712 </r>
       <r>     0.6127    27.4951   309.5273 </r>
       <r>     0.7034    45.3934   314.2504 </r>
       <r>     0.7940    50.1221   319.6517 </r>
       <r>     0.8847    42.3345   324.2475 </r>
       <r>     0.9754    45.9486   328.8769 </r>
       <r>     1.0660    55.8287   334.3116 </r>
       <r>     1.1567    56.5416   339.9299 </r>
       <r>     1.2473    55.6561   345.6870 </r>
       <r>     1.3380    46.4688   350.8938 </r>
       <r>     1.4287     7.2710   352.0000 </r>
       <r>     1.5193     0.0000   352.0000 </r>
       <r>     1.6100     0.0000   352.0000 </r>
       <r>     1.7006     0.0000   352.0000 </r>
       <r>     1.7913     0.0000   352.0000 </r>
       <r>     1.8820     0.0000   352.0000 </r>
       <r>     1.9726     0.0000   352.0000 </r>
       <r>     2.0633     0.0000   352.0000 </r>
       <r>     2.1539     0.0000   352.0000 </r>
       <r>     2.2446     0.0000   352.0000 </r>
       <r>     2.3353     0.0000   352.0000 </r>
       <r>     2.4259     0.0000   352.0000 </r>
       <r>     2.5166     0.0000   352.0000 </r>
       <r>     2.6073     0.0000   352.0000 </r>
      </set>
     </set>
    </array>
   </total>
  </dos>
 </calculation>
 <structure name="finalpos" >
  <crystal>
   <varray name="basis" >
    <v>      22.19275132      -0.00358812       0.00000000 </v>
    <v>     -11.09948509      19.23630908       0.00000000 </v>
    <v>       0.00000000       0.00000000      20.00000000 </v>
   </varray>
   <i name="volume">   8537.33594768 </i>
   <varray name="rec_basis" >
    <v>       0.04506396       0.02600222       0.00000000 </v>
    <v>       0.00000841       0.05198987       0.00000000 </v>
    <v>       0.00000000       0.00000000       0.05000000 </v>
   </varray>
  </crystal>
  <varray name="positions" >
   <v>       0.08226589       0.38672783       0.44953387 </v>
   <v>       0.00344182       0.37249275       0.48762444 </v>
   <v>       0.01849605       0.39579659       0.40292497 </v>
   <v>       0.17573869       0.67133275       0.52829817 </v>
   <v>       0.18005426       0.49372079       0.44678045 </v>
   <v>       0.46998778       0.73778393       0.48473187 </v>
   <v>       0.27255703       0.72975561       0.48247617 </v>
   <v>       0.28058779       0.54042538       0.48492483 </v>
   <v>       0.54481927       0.26920755       0.49875671 </v>
   <v>       0.74097984       0.27328970       0.49712103 </v>
   <v>       0.73686598       0.46519331       0.49899704 </v>
   <v>       0.65523754       0.17672609       0.58385205 </v>
   <v>       0.50693892       0.83443609       0.53120539 </v>
   <v>       0.54698959       0.99799558       0.62626823 </v>
   <v>       0.62325609       0.01526309       0.58425477 </v>
   <v>       0.62564886       0.07767924       0.64225347 </v>
   <v>       0.53663310       0.35699865       0.58758386 </v>
   <v>       0.33975774       0.50313423       0.53224686 </v>
   <v>       0.46748105       0.46700064       0.62991540 </v>
   <v>       0.40735950       0.38948793       0.59038593 </v>
   <v>       0.46902116       0.38893052       0.64752532 </v>
   <v>       0.83330980       0.47347848       0.58640276 </v>
   <v>       0.01310900       0.54312317       0.62723644 </v>
   <v>       0.99480814       0.60299988       0.58845923 </v>
   <v>       0.93340855       0.54107159       0.64591562 </v>
   <v>       0.32745874       0.83009875       0.44314631 </v>
   <v>       0.53551969       0.17261227       0.41289634 </v>
   <v>       0.39177900       0.99112769       0.39846342 </v>
   <v>       0.31774903       0.92700355       0.44343450 </v>
   <v>       0.38063886       0.00610177       0.48239857 </v>
   <v>       0.51642761       0.68357055       0.44738346 </v>
   <v>       0.64729652       0.47271084       0.41296260 </v>
   <v>       0.61413355       0.62026389       0.40393538 </v>
   <v>       0.62363768       0.69322061       0.45054128 </v>
   <v>       0.63830424       0.62885584       0.48840404 </v>
   <v>       0.83765522       0.36292881       0.41140676 </v>
   <v>       0.08138147       0.58294112       0.51330804 </v>
   <v>       0.51325347       0.92870184       0.51452876 </v>
   <v>       0.42809865       0.49708392       0.51689598 </v>
   <v>       0.51250490       0.07730767       0.45206588 </v>
   <v>       0.57631424       0.49682640       0.45358242 </v>
   <v>       0.93300635       0.43420352       0.45137980 </v>
   <v>       0.04577183       0.51577973       0.49419503 </v>
   <v>       0.08024664       0.48051713       0.47054959 </v>
   <v>       0.04435609       0.40479424       0.45166059 </v>
   <v>       0.15054203       0.61790114       0.50969128 </v>
   <v>       0.15270298       0.51948471       0.46611941 </v>
   <v>       0.19048499       0.58945559       0.48556588 </v>
   <v>       0.26742606       0.63024381       0.48364736 </v>
   <v>       0.30709913       0.59698942       0.48429469 </v>
   <v>       0.38012008       0.63481683       0.48477886 </v>
   <v>       0.41338275       0.70769204       0.48417575 </v>
   <v>       0.37553045       0.74282707       0.48350553 </v>
   <v>       0.30260188       0.70320339       0.48293444 </v>
   <v>       0.74751608       0.37366960       0.49782640 </v>
   <v>       0.70936912       0.40845166       0.49833613 </v>
   <v>       0.63640555       0.37136358       0.49858165 </v>
   <v>       0.60160239       0.29847398       0.49815818 </v>
   <v>       0.63872207       0.26263722       0.49758999 </v>
   <v>       0.71167966       0.30076245       0.49730023 </v>
   <v>       0.47923165       0.85962106       0.51109187 </v>
   <v>       0.52579277       0.04151401       0.49861577 </v>
   <v>       0.57815475       0.07572303       0.54820697 </v>
   <v>       0.61540087       0.14839023       0.54598690 </v>
   <v>       0.60122396       0.18580396       0.49835291 </v>
   <v>       0.59441410       0.03989635       0.60335616 </v>
   <v>       0.39298049       0.53107125       0.51294350 </v>
   <v>       0.52868922       0.48469257       0.50139610 </v>
   <v>       0.51186284       0.43348312       0.55178613 </v>
   <v>       0.54704358       0.39598147       0.54911252 </v>
   <v>       0.59713965       0.40894456       0.50012859 </v>
   <v>       0.46135457       0.41891234       0.60807621 </v>
   <v>       0.96862136       0.48189513       0.49905214 </v>
   <v>       0.93443551       0.49854553       0.54980831 </v>
   <v>       0.86171207       0.46317802       0.54764066 </v>
   <v>       0.82440008       0.41302205       0.49879530 </v>
   <v>       0.97073294       0.54902209       0.60600992 </v>
   <v>       0.41156316       0.81968544       0.48528522 </v>
   <v>       0.48238611       0.96445476       0.49367199 </v>
   <v>       0.41323711       0.92989177       0.46821719 </v>
   <v>       0.37997133       0.85746898       0.46396784 </v>
   <v>       0.54842610       0.14651480       0.45210094 </v>
   <v>       0.37353210       0.96527227       0.44702890 </v>
   <v>       0.42106368       0.59890030       0.48756620 </v>
   <v>       0.49499409       0.52814503       0.49684649 </v>
   <v>       0.53002598       0.59753545       0.47233353 </v>
   <v>       0.49091052       0.63082665       0.46757595 </v>
   <v>       0.60944752       0.46073780       0.45313628 </v>
   <v>       0.60561183       0.63728953       0.45278568 </v>
   <v>       0.86373062       0.40084649       0.45145109 </v>
  </varray>
 </structure>
</modeling>
