<?xml version="1.0" encoding="ISO-8859-1"?>
<modeling>
 <generator>
  <i name="program" type="string">vasp </i>
  <i name="version" type="string">5.4.4.18Apr17-6-g9f103f2a35  </i>
  <i name="subversion" type="string">(build Jun 07 2020 16:50:00) complex            parallel </i>
  <i name="platform" type="string">LinuxIFC </i>
  <i name="date" type="string">2023 02 02 </i>
  <i name="time" type="string">04:57:46 </i>
 </generator>
 <incar>
  <i type="string" name="SYSTEM">Simulation for cell shape cell volume r</i>
  <i type="int" name="ISTART">     1</i>
  <i type="string" name="PREC">high</i>
  <i type="string" name="ALGO">48</i>
  <i type="int" name="ICHARG">    11</i>
  <i type="int" name="NELM">   200</i>
  <i type="int" name="IBRION">    -1</i>
  <i name="EDIFF">      0.00001000</i>
  <i name="EDIFFG">     -0.01000000</i>
  <i type="int" name="NSW">     0</i>
  <i type="int" name="ISIF">     2</i>
  <i name="ENCUT">    500.00000000</i>
  <i name="POTIM">      0.30000000</i>
  <i type="string" name="LREAL">A</i>
  <i type="int" name="ISMEAR">     0</i>
  <i name="SIGMA">      0.01000000</i>
  <i type="int" name="NWRITE">     0</i>
  <i type="logical" name="LWAVE"> T  </i>
  <i type="logical" name="LCHARG"> T  </i>
  <v type="int" name="KPOINT_BSE">    -1     0     0     0</v>
  <i type="int" name="NELM">   200</i>
  <i type="string" name="GGA">PE</i>
 </incar>
 <structure name="primitive_cell" >
  <crystal>
   <varray name="basis" >
    <v>      14.53420433       0.00000000       0.00000000 </v>
    <v>      -7.26710216      12.58699017       0.00000000 </v>
    <v>       0.00000000       0.00000000      20.00000000 </v>
   </varray>
   <i name="volume">   3658.83773964 </i>
   <varray name="rec_basis" >
    <v>       0.06880322       0.03972356       0.00000000 </v>
    <v>       0.00000000       0.07944711       0.00000000 </v>
    <v>       0.00000000       0.00000000       0.05000000 </v>
   </varray>
  </crystal>
  <varray name="positions" >
   <v>      -0.38809986       0.22380028       0.48808033 </v>
   <v>      -0.43731493       0.28134254       0.48813243 </v>
   <v>      -0.28134254       0.28134254       0.48813243 </v>
   <v>      -0.38809986       0.38809986       0.48808033 </v>
   <v>      -0.22380028       0.38809986       0.48808033 </v>
   <v>       0.44423467       0.22211733       0.48800864 </v>
   <v>      -0.22211733       0.22211733       0.48800864 </v>
   <v>      -0.28134254       0.43731493       0.48813243 </v>
   <v>       0.38923485       0.19461743       0.42727445 </v>
   <v>      -0.19461743       0.19461743       0.42727445 </v>
   <v>      -0.19393356       0.19393356      -0.45179664 </v>
   <v>       0.38786711       0.19393356      -0.45179664 </v>
   <v>       0.43372554       0.21686277       0.38040523 </v>
   <v>      -0.21686277       0.21686277       0.38040523 </v>
   <v>       0.43014831       0.21507415      -0.40419817 </v>
   <v>      -0.21507415       0.21507415      -0.40419817 </v>
   <v>      -0.22211733      -0.44423467       0.48800864 </v>
   <v>       0.27711185       0.13855592      -0.45301690 </v>
   <v>      -0.13855592       0.13855592      -0.45301690 </v>
   <v>       0.27814040       0.13907020       0.42512310 </v>
   <v>      -0.13907020       0.13907020       0.42512310 </v>
   <v>      -0.21686277      -0.43372554       0.38040523 </v>
   <v>      -0.21507415      -0.43014831      -0.40419817 </v>
   <v>      -0.19461743      -0.38923485       0.42727445 </v>
   <v>      -0.19393356      -0.38786711      -0.45179664 </v>
   <v>      -0.11123018       0.11123018       0.48616232 </v>
   <v>       0.22246037       0.11123018       0.48616232 </v>
   <v>       0.23264775       0.11632388      -0.40618396 </v>
   <v>      -0.11632388       0.11632388      -0.40618396 </v>
   <v>       0.27555697       0.13777848       0.31718045 </v>
   <v>      -0.13777848       0.13777848       0.31718045 </v>
   <v>       0.21984656       0.10992328       0.35936750 </v>
   <v>      -0.10992328       0.10992328       0.35936750 </v>
   <v>       0.16845504       0.02327912       0.35472392 </v>
   <v>      -0.14517591       0.02327912       0.35472392 </v>
   <v>      -0.13855592      -0.27711185      -0.45301690 </v>
   <v>      -0.13907020      -0.27814040       0.42512310 </v>
   <v>       0.10402022       0.05201011       0.48625033 </v>
   <v>      -0.05201011       0.05201011       0.48625033 </v>
   <v>       0.16845504       0.14517591       0.35472392 </v>
   <v>      -0.02327912       0.14517591       0.35472392 </v>
   <v>      -0.11123018      -0.22246037       0.48616232 </v>
   <v>       0.05473487      -0.05473487       0.48611663 </v>
   <v>      -0.10946974      -0.05473487       0.48611663 </v>
   <v>      -0.11632388      -0.23264775      -0.40618396 </v>
   <v>      -0.13777848      -0.27555697       0.31718045 </v>
   <v>       0.05473487       0.10946974       0.48611663 </v>
   <v>      -0.10992328      -0.21984656       0.35936750 </v>
   <v>      -0.14517591      -0.16845504       0.35472392 </v>
   <v>      -0.02327912      -0.16845504       0.35472392 </v>
   <v>      -0.05201011      -0.10402022       0.48625033 </v>
  </varray>
 </structure>
 <varray name="primitive_index" >
  <v type="int" >        1 </v>
  <v type="int" >        7 </v>
  <v type="int" >       11 </v>
  <v type="int" >        2 </v>
  <v type="int" >        3 </v>
  <v type="int" >        8 </v>
  <v type="int" >       14 </v>
  <v type="int" >       12 </v>
  <v type="int" >        9 </v>
  <v type="int" >       22 </v>
  <v type="int" >       32 </v>
  <v type="int" >       10 </v>
  <v type="int" >       34 </v>
  <v type="int" >       37 </v>
  <v type="int" >       35 </v>
  <v type="int" >       39 </v>
  <v type="int" >       13 </v>
  <v type="int" >       33 </v>
  <v type="int" >       31 </v>
  <v type="int" >       26 </v>
  <v type="int" >       23 </v>
  <v type="int" >       36 </v>
  <v type="int" >       38 </v>
  <v type="int" >       18 </v>
  <v type="int" >       30 </v>
  <v type="int" >       24 </v>
  <v type="int" >       27 </v>
  <v type="int" >       51 </v>
  <v type="int" >       50 </v>
  <v type="int" >       46 </v>
  <v type="int" >       43 </v>
  <v type="int" >       28 </v>
  <v type="int" >       25 </v>
  <v type="int" >       48 </v>
  <v type="int" >       44 </v>
  <v type="int" >       29 </v>
  <v type="int" >       19 </v>
  <v type="int" >       16 </v>
  <v type="int" >       15 </v>
  <v type="int" >       47 </v>
  <v type="int" >       45 </v>
  <v type="int" >       20 </v>
  <v type="int" >        5 </v>
  <v type="int" >        6 </v>
  <v type="int" >       49 </v>
  <v type="int" >       40 </v>
  <v type="int" >        4 </v>
  <v type="int" >       21 </v>
  <v type="int" >       42 </v>
  <v type="int" >       41 </v>
  <v type="int" >       17 </v>
 </varray>
 <kpoints>
  <generation param="listgenerated">
   <i name="divisions" type="int">      20 </i>
   <v>       0.00000000       0.00000000       0.00000000 </v>
   <v>       0.50000000       0.00000000       0.00000000 </v>
   <v>       0.33333333       0.33333333       0.00000000 </v>
   <v>       0.00000000       0.00000000       0.00000000 </v>
  </generation>
  <varray name="kpointlist" >
   <v>       0.00000000       0.00000000       0.00000000 </v>
   <v>       0.02631579       0.00000000       0.00000000 </v>
   <v>       0.05263158       0.00000000       0.00000000 </v>
   <v>       0.07894737       0.00000000       0.00000000 </v>
   <v>       0.10526316       0.00000000       0.00000000 </v>
   <v>       0.13157895       0.00000000       0.00000000 </v>
   <v>       0.15789474       0.00000000       0.00000000 </v>
   <v>       0.18421053       0.00000000       0.00000000 </v>
   <v>       0.21052632       0.00000000       0.00000000 </v>
   <v>       0.23684211       0.00000000       0.00000000 </v>
   <v>       0.26315789       0.00000000       0.00000000 </v>
   <v>       0.28947368       0.00000000       0.00000000 </v>
   <v>       0.31578947       0.00000000       0.00000000 </v>
   <v>       0.34210526       0.00000000       0.00000000 </v>
   <v>       0.36842105       0.00000000       0.00000000 </v>
   <v>       0.39473684       0.00000000       0.00000000 </v>
   <v>       0.42105263       0.00000000       0.00000000 </v>
   <v>       0.44736842       0.00000000       0.00000000 </v>
   <v>       0.47368421       0.00000000       0.00000000 </v>
   <v>       0.50000000       0.00000000       0.00000000 </v>
   <v>       0.50000000       0.00000000       0.00000000 </v>
   <v>       0.49122807       0.01754386       0.00000000 </v>
   <v>       0.48245614       0.03508772       0.00000000 </v>
   <v>       0.47368421       0.05263158       0.00000000 </v>
   <v>       0.46491228       0.07017544       0.00000000 </v>
   <v>       0.45614035       0.08771930       0.00000000 </v>
   <v>       0.44736842       0.10526316       0.00000000 </v>
   <v>       0.43859649       0.12280702       0.00000000 </v>
   <v>       0.42982456       0.14035088       0.00000000 </v>
   <v>       0.42105263       0.15789474       0.00000000 </v>
   <v>       0.41228070       0.17543860       0.00000000 </v>
   <v>       0.40350877       0.19298246       0.00000000 </v>
   <v>       0.39473684       0.21052632       0.00000000 </v>
   <v>       0.38596491       0.22807018       0.00000000 </v>
   <v>       0.37719298       0.24561404       0.00000000 </v>
   <v>       0.36842105       0.26315789       0.00000000 </v>
   <v>       0.35964912       0.28070175       0.00000000 </v>
   <v>       0.35087719       0.29824561       0.00000000 </v>
   <v>       0.34210526       0.31578947       0.00000000 </v>
   <v>       0.33333333       0.33333333       0.00000000 </v>
   <v>       0.33333333       0.33333333       0.00000000 </v>
   <v>       0.31578947       0.31578947       0.00000000 </v>
   <v>       0.29824561       0.29824561       0.00000000 </v>
   <v>       0.28070175       0.28070175       0.00000000 </v>
   <v>       0.26315789       0.26315789       0.00000000 </v>
   <v>       0.24561404       0.24561404       0.00000000 </v>
   <v>       0.22807018       0.22807018       0.00000000 </v>
   <v>       0.21052632       0.21052632       0.00000000 </v>
   <v>       0.19298246       0.19298246       0.00000000 </v>
   <v>       0.17543860       0.17543860       0.00000000 </v>
   <v>       0.15789474       0.15789474       0.00000000 </v>
   <v>       0.14035088       0.14035088       0.00000000 </v>
   <v>       0.12280702       0.12280702       0.00000000 </v>
   <v>       0.10526316       0.10526316       0.00000000 </v>
   <v>       0.08771930       0.08771930       0.00000000 </v>
   <v>       0.07017544       0.07017544       0.00000000 </v>
   <v>       0.05263158       0.05263158       0.00000000 </v>
   <v>       0.03508772       0.03508772       0.00000000 </v>
   <v>       0.01754386       0.01754386       0.00000000 </v>
   <v>       0.00000000       0.00000000       0.00000000 </v>
  </varray>
  <varray name="weights" >
   <v>       0.01666667 </v>
   <v>       0.01666667 </v>
   <v>       0.01666667 </v>
   <v>       0.01666667 </v>
   <v>       0.01666667 </v>
   <v>       0.01666667 </v>
   <v>       0.01666667 </v>
   <v>       0.01666667 </v>
   <v>       0.01666667 </v>
   <v>       0.01666667 </v>
   <v>       0.01666667 </v>
   <v>       0.01666667 </v>
   <v>       0.01666667 </v>
   <v>       0.01666667 </v>
   <v>       0.01666667 </v>
   <v>       0.01666667 </v>
   <v>       0.01666667 </v>
   <v>       0.01666667 </v>
   <v>       0.01666667 </v>
   <v>       0.01666667 </v>
   <v>       0.01666667 </v>
   <v>       0.01666667 </v>
   <v>       0.01666667 </v>
   <v>       0.01666667 </v>
   <v>       0.01666667 </v>
   <v>       0.01666667 </v>
   <v>       0.01666667 </v>
   <v>       0.01666667 </v>
   <v>       0.01666667 </v>
   <v>       0.01666667 </v>
   <v>       0.01666667 </v>
   <v>       0.01666667 </v>
   <v>       0.01666667 </v>
   <v>       0.01666667 </v>
   <v>       0.01666667 </v>
   <v>       0.01666667 </v>
   <v>       0.01666667 </v>
   <v>       0.01666667 </v>
   <v>       0.01666667 </v>
   <v>       0.01666667 </v>
   <v>       0.01666667 </v>
   <v>       0.01666667 </v>
   <v>       0.01666667 </v>
   <v>       0.01666667 </v>
   <v>       0.01666667 </v>
   <v>       0.01666667 </v>
   <v>       0.01666667 </v>
   <v>       0.01666667 </v>
   <v>       0.01666667 </v>
   <v>       0.01666667 </v>
   <v>       0.01666667 </v>
   <v>       0.01666667 </v>
   <v>       0.01666667 </v>
   <v>       0.01666667 </v>
   <v>       0.01666667 </v>
   <v>       0.01666667 </v>
   <v>       0.01666667 </v>
   <v>       0.01666667 </v>
   <v>       0.01666667 </v>
   <v>       0.01666667 </v>
  </varray>
 </kpoints>
 <parameters>
  <separator name="general" >
   <i type="string" name="SYSTEM">Simulation for cell shape cell volume r</i>
   <i type="logical" name="LCOMPAT"> F  </i>
  </separator>
  <separator name="electronic" >
   <i type="string" name="PREC">high</i>
   <i name="ENMAX">    500.00000000</i>
   <i name="ENAUG">    644.87300000</i>
   <i name="EDIFF">      0.00001000</i>
   <i type="int" name="IALGO">    38</i>
   <i type="int" name="IWAVPR">    10</i>
   <i type="int" name="NBANDS">   112</i>
   <i name="NELECT">    156.00000000</i>
   <i type="int" name="TURBO">     0</i>
   <i type="int" name="IRESTART">     0</i>
   <i type="int" name="NREBOOT">     0</i>
   <i type="int" name="NMIN">     0</i>
   <i name="EREF">      0.00000000</i>
   <separator name="electronic smearing" >
    <i type="int" name="ISMEAR">     0</i>
    <i name="SIGMA">      0.01000000</i>
    <i name="KSPACING">      0.50000000</i>
    <i type="logical" name="KGAMMA"> T  </i>
   </separator>
   <separator name="electronic projectors" >
    <i type="logical" name="LREAL"> T  </i>
    <v name="ROPT">     -0.00040000     -0.00040000     -0.00040000</v>
    <i type="int" name="LMAXPAW">  -100</i>
    <i type="int" name="LMAXMIX">     2</i>
    <i type="logical" name="NLSPLINE"> F  </i>
   </separator>
   <separator name="electronic startup" >
    <i type="int" name="ISTART">     1</i>
    <i type="int" name="ICHARG">    11</i>
    <i type="int" name="INIWAV">     1</i>
   </separator>
   <separator name="electronic spin" >
    <i type="int" name="ISPIN">     1</i>
    <i type="logical" name="LNONCOLLINEAR"> F  </i>
    <v name="MAGMOM">      1.00000000      1.00000000      1.00000000      1.00000000      1.00000000      1.00000000      1.00000000      1.00000000      1.00000000      1.00000000      1.00000000      1.00000000      1.00000000      1.00000000      1.00000000      1.00000000      1.00000000      1.00000000      1.00000000      1.00000000
      1.00000000      1.00000000      1.00000000      1.00000000      1.00000000      1.00000000      1.00000000      1.00000000      1.00000000      1.00000000      1.00000000      1.00000000      1.00000000      1.00000000      1.00000000      1.00000000      1.00000000      1.00000000      1.00000000      1.00000000
      1.00000000      1.00000000      1.00000000      1.00000000      1.00000000      1.00000000      1.00000000      1.00000000      1.00000000      1.00000000      1.00000000</v>
    <i name="NUPDOWN">     -1.00000000</i>
    <i type="logical" name="LSORBIT"> F  </i>
    <v name="SAXIS">      0.00000000      0.00000000      1.00000000</v>
    <i type="logical" name="LSPIRAL"> F  </i>
    <v name="QSPIRAL">      0.00000000      0.00000000      0.00000000</v>
    <i type="logical" name="LZEROZ"> F  </i>
   </separator>
   <separator name="electronic exchange-correlation" >
    <i type="logical" name="LASPH"> F  </i>
    <i type="logical" name="LMETAGGA"> F  </i>
   </separator>
   <separator name="electronic convergence" >
    <i type="int" name="NELM">   200</i>
    <i type="int" name="NELMDL">     0</i>
    <i type="int" name="NELMIN">     2</i>
    <i name="ENINI">    500.00000000</i>
    <separator name="electronic convergence detail" >
     <i type="logical" name="LDIAG"> T  </i>
     <i type="logical" name="LSUBROT"> F  </i>
     <i name="WEIMIN">      0.00000000</i>
     <i name="EBREAK">      0.00000002</i>
     <i name="DEPER">      0.30000000</i>
     <i type="int" name="NRMM">     4</i>
     <i name="TIME">      0.40000000</i>
    </separator>
   </separator>
   <separator name="electronic mixer" >
    <i name="AMIX">      0.40000000</i>
    <i name="BMIX">      1.00000000</i>
    <i name="AMIN">      0.10000000</i>
    <i name="AMIX_MAG">      1.60000000</i>
    <i name="BMIX_MAG">      1.00000000</i>
    <separator name="electronic mixer details" >
     <i type="int" name="IMIX">     4</i>
     <i type="logical" name="MIXFIRST"> F  </i>
     <i type="int" name="MAXMIX">   -45</i>
     <i name="WC">    100.00000000</i>
     <i type="int" name="INIMIX">     1</i>
     <i type="int" name="MIXPRE">     1</i>
     <i type="int" name="MREMOVE">     5</i>
    </separator>
   </separator>
   <separator name="electronic dipolcorrection" >
    <i type="logical" name="LDIPOL"> F  </i>
    <i type="logical" name="LMONO"> F  </i>
    <i type="int" name="IDIPOL">     0</i>
    <i name="EPSILON">      1.00000000</i>
    <v name="DIPOL">   -100.00000000   -100.00000000   -100.00000000</v>
    <i name="EFIELD">      0.00000000</i>
   </separator>
  </separator>
  <separator name="grids" >
   <i type="int" name="NGX">   108</i>
   <i type="int" name="NGY">   108</i>
   <i type="int" name="NGZ">   150</i>
   <i type="int" name="NGXF">   160</i>
   <i type="int" name="NGYF">   160</i>
   <i type="int" name="NGZF">   224</i>
   <i type="logical" name="ADDGRID"> F  </i>
  </separator>
  <separator name="ionic" >
   <i type="int" name="NSW">     0</i>
   <i type="int" name="IBRION">    -1</i>
   <i type="int" name="MDALGO">     0</i>
   <i type="int" name="ISIF">     2</i>
   <i name="PSTRESS">      0.00000000</i>
   <i name="EDIFFG">     -0.01000000</i>
   <i type="int" name="NFREE">     0</i>
   <i name="POTIM">      0.30000000</i>
   <i name="SMASS">     -3.00000000</i>
   <i name="SCALEE">      1.00000000</i>
  </separator>
  <separator name="ionic md" >
   <i name="TEBEG">      0.00010000</i>
   <i name="TEEND">      0.00010000</i>
   <i type="int" name="NBLOCK">     1</i>
   <i type="int" name="KBLOCK">     1</i>
   <i type="int" name="NPACO">   256</i>
   <i name="APACO">     16.00000000</i>
  </separator>
  <separator name="symmetry" >
   <i type="int" name="ISYM">     2</i>
   <i name="SYMPREC">      0.00001000</i>
  </separator>
  <separator name="dos" >
   <i type="int" name="LORBIT">     0</i>
   <v name="RWIGS">     -1.00000000     -1.00000000     -1.00000000</v>
   <i type="int" name="NEDOS">   301</i>
   <i name="EMIN">     10.00000000</i>
   <i name="EMAX">    -10.00000000</i>
   <i name="EFERMI">      0.00000000</i>
  </separator>
  <separator name="writing" >
   <i type="int" name="NWRITE">     0</i>
   <i type="logical" name="LWAVE"> T  </i>
   <i type="logical" name="LDOWNSAMPLE"> F  </i>
   <i type="logical" name="LCHARG"> T  </i>
   <i type="logical" name="LPARD"> F  </i>
   <i type="logical" name="LVTOT"> F  </i>
   <i type="logical" name="LVHAR"> F  </i>
   <i type="logical" name="LELF"> F  </i>
   <i type="logical" name="LOPTICS"> F  </i>
   <v name="STM">      0.00000000      0.00000000      0.00000000      0.00000000      0.00000000      0.00000000      0.00000000</v>
  </separator>
  <separator name="performance" >
   <i type="int" name="NPAR">    16</i>
   <i type="int" name="NSIM">     4</i>
   <i type="int" name="NBLK">    -1</i>
   <i type="logical" name="LPLANE"> T  </i>
   <i type="logical" name="LSCALAPACK"> T  </i>
   <i type="logical" name="LSCAAWARE"> F  </i>
   <i type="logical" name="LSCALU"> F  </i>
   <i type="logical" name="LASYNC"> F  </i>
   <i type="logical" name="LORBITALREAL"> F  </i>
  </separator>
  <separator name="miscellaneous" >
   <i type="int" name="IDIOT">     3</i>
   <i type="int" name="ISPECIAL">     0</i>
   <i type="logical" name="LMUSIC"> F  </i>
   <v name="POMASS">     14.00100000     12.01100000      1.00000000</v>
   <v name="DARWINR">      0.00000000      0.00000000      0.00000000</v>
   <v name="DARWINV">      1.00000000      1.00000000      1.00000000</v>
   <i type="logical" name="LCORR"> T  </i>
  </separator>
  <i type="logical" name="GGA_COMPAT"> T  </i>
  <i type="logical" name="LBERRY"> F  </i>
  <i type="int" name="ICORELEVEL">     0</i>
  <i type="logical" name="LDAU"> F  </i>
  <i type="int" name="I_CONSTRAINED_M">     0</i>
  <separator name="electronic exchange-correlation" >
   <i type="string" name="GGA">PE</i>
   <i type="int" name="VOSKOWN">     0</i>
   <i type="logical" name="LHFCALC"> F  </i>
   <i type="string" name="PRECFOCK"></i>
   <i type="logical" name="LSYMGRAD"> F  </i>
   <i type="logical" name="LHFONE"> F  </i>
   <i type="logical" name="LRHFCALC"> F  </i>
   <i type="logical" name="LTHOMAS"> F  </i>
   <i type="logical" name="LMODELHF"> F  </i>
   <i name="ENCUT4O">     -1.00000000</i>
   <i type="int" name="EXXOEP">     0</i>
   <i type="int" name="FOURORBIT">     0</i>
   <i name="AEXX">      0.00000000</i>
   <i name="HFALPHA">      0.00000000</i>
   <i name="MCALPHA">      0.00000000</i>
   <i name="ALDAX">      1.00000000</i>
   <i name="AGGAX">      1.00000000</i>
   <i name="ALDAC">      1.00000000</i>
   <i name="AGGAC">      1.00000000</i>
   <i type="int" name="NKREDX">     1</i>
   <i type="int" name="NKREDY">     1</i>
   <i type="int" name="NKREDZ">     1</i>
   <i type="logical" name="SHIFTRED"> F  </i>
   <i type="logical" name="ODDONLY"> F  </i>
   <i type="logical" name="EVENONLY"> F  </i>
   <i type="int" name="LMAXFOCK">     0</i>
   <i type="int" name="NMAXFOCKAE">     0</i>
   <i type="logical" name="LFOCKAEDFT"> F  </i>
   <i name="HFSCREEN">      0.00000000</i>
   <i name="HFSCREENC">      0.00000000</i>
   <i type="int" name="NBANDSGWLOW">     0</i>
  </separator>
  <separator name="vdW DFT" >
   <i type="logical" name="LUSE_VDW"> F  </i>
   <i name="Zab_VDW">     -0.84910000</i>
   <i name="PARAM1">      0.12340000</i>
   <i name="PARAM2">      1.00000000</i>
   <i name="PARAM3">      0.00000000</i>
  </separator>
  <separator name="model GW" >
   <i type="int" name="MODEL_GW">     0</i>
   <i name="MODEL_EPS0">     43.04514988</i>
   <i name="MODEL_ALPHA">      1.00000000</i>
  </separator>
  <separator name="linear response parameters" >
   <i type="logical" name="LEPSILON"> F  </i>
   <i type="logical" name="LRPA"> F  </i>
   <i type="logical" name="LNABLA"> F  </i>
   <i type="logical" name="LVEL"> F  </i>
   <i type="int" name="KINTER">     0</i>
   <i name="CSHIFT">      0.10000000</i>
   <i name="OMEGAMAX">     -1.00000000</i>
   <i name="DEG_THRESHOLD">      0.00200000</i>
   <i name="RTIME">     -0.10000000</i>
   <i name="WPLASMAI">      0.00000000</i>
   <v name="DFIELD">      0.00000000      0.00000000      0.00000000</v>
   <v name="WPLASMA">      0.00000000      0.00000000      0.00000000      0.00000000      0.00000000      0.00000000      0.00000000      0.00000000      0.00000000</v>
  </separator>
  <separator name="orbital magnetization" >
   <i type="logical" name="NUCIND"> F  </i>
   <v name="MAGPOS">      0.00000000      0.00000000      0.00000000</v>
   <i type="logical" name="LNICSALL"> T  </i>
   <i type="logical" name="ORBITALMAG"> F  </i>
   <i type="logical" name="LMAGBLOCH"> F  </i>
   <i type="logical" name="LCHIMAG"> F  </i>
   <i type="logical" name="LGAUGE"> T  </i>
   <i type="int" name="MAGATOM">     0</i>
   <v name="MAGDIPOL">      0.00000000      0.00000000      0.00000000</v>
   <v name="AVECCONST">      0.00000000      0.00000000      0.00000000</v>
  </separator>
  <separator name="response functions" >
   <i type="logical" name="LADDER"> F  </i>
   <i type="logical" name="LRPAFORCE"> F  </i>
   <i type="logical" name="LFXC"> F  </i>
   <i type="logical" name="LHARTREE"> T  </i>
   <i type="int" name="IBSE">     0</i>
   <v type="int" name="KPOINT">    -1     0     0     0</v>
   <i type="logical" name="LTCTE"> F  </i>
   <i type="logical" name="LTETE"> F  </i>
   <i type="logical" name="LTRIPLET"> F  </i>
   <i type="logical" name="LFXCEPS"> F  </i>
   <i type="logical" name="LFXHEG"> F  </i>
   <i type="int" name="NATURALO">     2</i>
   <i type="logical" name="L2ORDER"> F  </i>
   <i type="logical" name="LMP2LT"> F  </i>
   <i type="logical" name="LUSEW"> F  </i>
   <i name="ENCUTGW">     -2.00000000</i>
   <i name="ENCUTGWSOFT">     -2.00000000</i>
   <i name="ENCUTLF">     -1.00000000</i>
   <i type="int" name="LMAXMP2">    -1</i>
   <i name="SCISSOR">      0.00000000</i>
   <i type="int" name="NOMEGA">     0</i>
   <i type="int" name="NOMEGAR">     0</i>
   <i type="int" name="NBANDSGW">    -1</i>
   <i type="int" name="NBANDSO">    -1</i>
   <i type="int" name="NBANDSV">    -1</i>
   <i type="int" name="NELM">   200</i>
   <i type="int" name="NELMHF">     1</i>
   <i type="int" name="DIM">     3</i>
   <i type="int" name="ANTIRES">     0</i>
   <i name="OMEGAMAX">    -30.00000000</i>
   <i name="OMEGAMIN">    -30.00000000</i>
   <i name="OMEGATL">   -200.00000000</i>
   <i type="int" name="OMEGAGRID">   140</i>
   <i name="CSHIFT">     -0.10000000</i>
   <i type="logical" name="SELFENERGY"> F  </i>
   <i type="logical" name="LSPECTRAL"> F  </i>
   <i type="logical" name="LSPECTRALGW"> F  </i>
   <i type="logical" name="LSINGLES"> F  </i>
   <i type="logical" name="LFERMIGW"> F  </i>
   <i type="logical" name="ODDONLYGW"> F  </i>
   <i type="logical" name="EVENONLYGW"> F  </i>
   <i type="int" name="NKREDLFX">     1</i>
   <i type="int" name="NKREDLFY">     1</i>
   <i type="int" name="NKREDLFZ">     1</i>
   <i type="int" name="MAXMEM">  2800</i>
   <i type="int" name="TELESCOPE">     0</i>
   <i type="int" name="TAUPAR">     1</i>
   <i type="int" name="OMEGAPAR">    -1</i>
   <i name="LAMBDA">      1.00000000</i>
  </separator>
  <separator name="External order field" >
   <i name="OFIELD_KAPPA">      0.00000000</i>
   <v name="OFIELD_K">      0.00000000      0.00000000      0.00000000</v>
   <i name="OFIELD_Q6_NEAR">      0.00000000</i>
   <i name="OFIELD_Q6_FAR">      0.00000000</i>
   <i name="OFIELD_A">      0.00000000</i>
  </separator>
  <separator name="solvation model" >
   <i type="logical" name="LSOL"> F  </i>
  </separator>
 </parameters>
 <atominfo>
  <atoms>      51 </atoms>
  <types>       3 </types>
  <array name="atoms" >
   <dimension dim="1">ion</dimension>
   <field type="string">element</field>
   <field type="int">atomtype</field>
   <set>
    <rc><c>N </c><c>   1</c></rc>
    <rc><c>N </c><c>   1</c></rc>
    <rc><c>N </c><c>   1</c></rc>
    <rc><c>N </c><c>   1</c></rc>
    <rc><c>N </c><c>   1</c></rc>
    <rc><c>N </c><c>   1</c></rc>
    <rc><c>C </c><c>   2</c></rc>
    <rc><c>C </c><c>   2</c></rc>
    <rc><c>C </c><c>   2</c></rc>
    <rc><c>C </c><c>   2</c></rc>
    <rc><c>C </c><c>   2</c></rc>
    <rc><c>C </c><c>   2</c></rc>
    <rc><c>C </c><c>   2</c></rc>
    <rc><c>C </c><c>   2</c></rc>
    <rc><c>C </c><c>   2</c></rc>
    <rc><c>C </c><c>   2</c></rc>
    <rc><c>C </c><c>   2</c></rc>
    <rc><c>C </c><c>   2</c></rc>
    <rc><c>C </c><c>   2</c></rc>
    <rc><c>C </c><c>   2</c></rc>
    <rc><c>C </c><c>   2</c></rc>
    <rc><c>C </c><c>   2</c></rc>
    <rc><c>C </c><c>   2</c></rc>
    <rc><c>C </c><c>   2</c></rc>
    <rc><c>C </c><c>   2</c></rc>
    <rc><c>C </c><c>   2</c></rc>
    <rc><c>C </c><c>   2</c></rc>
    <rc><c>C </c><c>   2</c></rc>
    <rc><c>C </c><c>   2</c></rc>
    <rc><c>C </c><c>   2</c></rc>
    <rc><c>C </c><c>   2</c></rc>
    <rc><c>C </c><c>   2</c></rc>
    <rc><c>C </c><c>   2</c></rc>
    <rc><c>H </c><c>   3</c></rc>
    <rc><c>H </c><c>   3</c></rc>
    <rc><c>H </c><c>   3</c></rc>
    <rc><c>H </c><c>   3</c></rc>
    <rc><c>H </c><c>   3</c></rc>
    <rc><c>H </c><c>   3</c></rc>
    <rc><c>H </c><c>   3</c></rc>
    <rc><c>H </c><c>   3</c></rc>
    <rc><c>H </c><c>   3</c></rc>
    <rc><c>H </c><c>   3</c></rc>
    <rc><c>H </c><c>   3</c></rc>
    <rc><c>H </c><c>   3</c></rc>
    <rc><c>H </c><c>   3</c></rc>
    <rc><c>H </c><c>   3</c></rc>
    <rc><c>H </c><c>   3</c></rc>
    <rc><c>H </c><c>   3</c></rc>
    <rc><c>H </c><c>   3</c></rc>
    <rc><c>H </c><c>   3</c></rc>
   </set>
  </array>
  <array name="atomtypes" >
   <dimension dim="1">type</dimension>
   <field type="int">atomspertype</field>
   <field type="string">element</field>
   <field>mass</field>
   <field>valence</field>
   <field type="string">pseudopotential</field>
   <set>
    <rc><c>   6</c><c>N </c><c>     14.00100000</c><c>      5.00000000</c><c>  PAW_PBE N 08Apr2002                   </c></rc>
    <rc><c>  27</c><c>C </c><c>     12.01100000</c><c>      4.00000000</c><c>  PAW_PBE C 08Apr2002                   </c></rc>
    <rc><c>  18</c><c>H </c><c>      1.00000000</c><c>      1.00000000</c><c>  PAW_PBE H 15Jun2001                   </c></rc>
   </set>
  </array>
 </atominfo>
 <structure name="initialpos" >
  <crystal>
   <varray name="basis" >
    <v>      14.53420433       0.00000000       0.00000000 </v>
    <v>      -7.26710216      12.58699017       0.00000000 </v>
    <v>       0.00000000       0.00000000      20.00000000 </v>
   </varray>
   <i name="volume">   3658.83773964 </i>
   <varray name="rec_basis" >
    <v>       0.06880322       0.03972356       0.00000000 </v>
    <v>       0.00000000       0.07944711       0.00000000 </v>
    <v>       0.00000000       0.00000000       0.05000000 </v>
   </varray>
  </crystal>
  <varray name="positions" >
   <v>       0.61190014       0.22380028       0.48808033 </v>
   <v>       0.61190014       0.38809986       0.48808033 </v>
   <v>       0.77619972       0.38809986       0.48808033 </v>
   <v>       0.05473487       0.10946974       0.48611663 </v>
   <v>       0.05473487       0.94526513       0.48611663 </v>
   <v>       0.89053026       0.94526513       0.48611663 </v>
   <v>       0.56268507       0.28134254       0.48813243 </v>
   <v>       0.44423467       0.22211733       0.48800864 </v>
   <v>       0.38923485       0.19461743       0.42727445 </v>
   <v>       0.38786711       0.19393356       0.54820336 </v>
   <v>       0.71865746       0.28134254       0.48813243 </v>
   <v>       0.71865746       0.43731493       0.48813243 </v>
   <v>       0.77788267       0.55576533       0.48800864 </v>
   <v>       0.77788267       0.22211733       0.48800864 </v>
   <v>       0.94798989       0.05201011       0.48625033 </v>
   <v>       0.10402022       0.05201011       0.48625033 </v>
   <v>       0.94798989       0.89597978       0.48625033 </v>
   <v>       0.80538257       0.61076515       0.42727445 </v>
   <v>       0.86092980       0.72185960       0.42512310 </v>
   <v>       0.88876982       0.77753963       0.48616232 </v>
   <v>       0.89007672       0.78015344       0.35936750 </v>
   <v>       0.80538257       0.19461743       0.42727445 </v>
   <v>       0.86092980       0.13907020       0.42512310 </v>
   <v>       0.88876982       0.11123018       0.48616232 </v>
   <v>       0.89007672       0.10992328       0.35936750 </v>
   <v>       0.27814040       0.13907020       0.42512310 </v>
   <v>       0.22246037       0.11123018       0.48616232 </v>
   <v>       0.21984656       0.10992328       0.35936750 </v>
   <v>       0.86144408       0.72288815       0.54698310 </v>
   <v>       0.80606644       0.61213289       0.54820336 </v>
   <v>       0.86144408       0.13855592       0.54698310 </v>
   <v>       0.80606644       0.19393356       0.54820336 </v>
   <v>       0.27711185       0.13855592       0.54698310 </v>
   <v>       0.43372554       0.21686277       0.38040523 </v>
   <v>       0.43014831       0.21507415       0.59580183 </v>
   <v>       0.78313723       0.56627446       0.38040523 </v>
   <v>       0.78313723       0.21686277       0.38040523 </v>
   <v>       0.78492585       0.56985169       0.59580183 </v>
   <v>       0.78492585       0.21507415       0.59580183 </v>
   <v>       0.86222152       0.72444303       0.31718045 </v>
   <v>       0.97672088       0.83154496       0.35472392 </v>
   <v>       0.85482409       0.83154496       0.35472392 </v>
   <v>       0.86222152       0.13777848       0.31718045 </v>
   <v>       0.85482409       0.02327912       0.35472392 </v>
   <v>       0.97672088       0.14517591       0.35472392 </v>
   <v>       0.27555697       0.13777848       0.31718045 </v>
   <v>       0.16845504       0.14517591       0.35472392 </v>
   <v>       0.16845504       0.02327912       0.35472392 </v>
   <v>       0.88367612       0.76735225       0.59381604 </v>
   <v>       0.88367612       0.11632388       0.59381604 </v>
   <v>       0.23264775       0.11632388       0.59381604 </v>
  </varray>
 </structure>
 <calculation>
  <scstep>
   <time name="dav">   27.03   27.24</time>
   <time name="total">   27.12   27.33</time>
   <energy>
    <i name="alphaZ">     31.02386764 </i>
    <i name="ewald">  16296.32946229 </i>
    <i name="hartreedc"> -21081.02718125 </i>
    <i name="XCdc">    541.39669202 </i>
    <i name="pawpsdc">  14406.70503207 </i>
    <i name="pawaedc"> -14433.84838842 </i>
    <i name="eentropy">     -0.00000000 </i>
    <i name="bandstr">  -1902.95198510 </i>
    <i name="atom">   5784.97221972 </i>
    <i name="e_fr_energy">   -357.40028102 </i>
    <i name="e_wo_entrp">   -357.40028102 </i>
    <i name="e_0_energy">   -357.40028102 </i>
   </energy>
  </scstep>
  <scstep>
   <time name="dav">   30.50   30.71</time>
   <time name="total">   30.50   30.72</time>
   <energy>
    <i name="e_fr_energy">   -357.78325345 </i>
    <i name="e_wo_entrp">   -357.78325345 </i>
    <i name="e_0_energy">   -357.78325345 </i>
   </energy>
  </scstep>
  <scstep>
   <time name="dav">   33.24   33.48</time>
   <time name="total">   33.24   33.48</time>
   <energy>
    <i name="e_fr_energy">   -357.79124082 </i>
    <i name="e_wo_entrp">   -357.79124082 </i>
    <i name="e_0_energy">   -357.79124082 </i>
   </energy>
  </scstep>
  <scstep>
   <time name="dav">   30.52   30.75</time>
   <time name="total">   30.52   30.75</time>
   <energy>
    <i name="e_fr_energy">   -357.79134944 </i>
    <i name="e_wo_entrp">   -357.79134944 </i>
    <i name="e_0_energy">   -357.79134944 </i>
   </energy>
  </scstep>
  <scstep>
   <time name="dav">   26.33   26.52</time>
   <time name="total">   26.33   26.53</time>
   <energy>
    <i name="alphaZ">     31.02386764 </i>
    <i name="ewald">  16296.32946229 </i>
    <i name="hartreedc"> -21081.02718125 </i>
    <i name="XCdc">    541.39669202 </i>
    <i name="pawpsdc">  14406.70503207 </i>
    <i name="pawaedc"> -14433.84838842 </i>
    <i name="eentropy">     -0.00000000 </i>
    <i name="bandstr">  -1903.34305887 </i>
    <i name="atom">   5784.97221972 </i>
    <i name="e_fr_energy">   -357.79135479 </i>
    <i name="e_wo_entrp">   -357.79135479 </i>
    <i name="e_0_energy">   -357.79135479 </i>
   </energy>
  </scstep>
  <structure>
   <crystal>
    <varray name="basis" >
     <v>      14.53420433       0.00000000       0.00000000 </v>
     <v>      -7.26710216      12.58699017       0.00000000 </v>
     <v>       0.00000000       0.00000000      20.00000000 </v>
    </varray>
    <i name="volume">   3658.83773964 </i>
    <varray name="rec_basis" >
     <v>       0.06880322       0.03972356       0.00000000 </v>
     <v>       0.00000000       0.07944711       0.00000000 </v>
     <v>       0.00000000       0.00000000       0.05000000 </v>
    </varray>
   </crystal>
   <varray name="positions" >
    <v>       0.61190014       0.22380028       0.48808033 </v>
    <v>       0.61190014       0.38809986       0.48808033 </v>
    <v>       0.77619972       0.38809986       0.48808033 </v>
    <v>       0.05473487       0.10946974       0.48611663 </v>
    <v>       0.05473487       0.94526513       0.48611663 </v>
    <v>       0.89053026       0.94526513       0.48611663 </v>
    <v>       0.56268507       0.28134254       0.48813243 </v>
    <v>       0.44423467       0.22211733       0.48800864 </v>
    <v>       0.38923485       0.19461743       0.42727445 </v>
    <v>       0.38786711       0.19393356       0.54820336 </v>
    <v>       0.71865746       0.28134254       0.48813243 </v>
    <v>       0.71865746       0.43731493       0.48813243 </v>
    <v>       0.77788267       0.55576533       0.48800864 </v>
    <v>       0.77788267       0.22211733       0.48800864 </v>
    <v>       0.94798989       0.05201011       0.48625033 </v>
    <v>       0.10402022       0.05201011       0.48625033 </v>
    <v>       0.94798989       0.89597978       0.48625033 </v>
    <v>       0.80538257       0.61076515       0.42727445 </v>
    <v>       0.86092980       0.72185960       0.42512310 </v>
    <v>       0.88876982       0.77753963       0.48616232 </v>
    <v>       0.89007672       0.78015344       0.35936750 </v>
    <v>       0.80538257       0.19461743       0.42727445 </v>
    <v>       0.86092980       0.13907020       0.42512310 </v>
    <v>       0.88876982       0.11123018       0.48616232 </v>
    <v>       0.89007672       0.10992328       0.35936750 </v>
    <v>       0.27814040       0.13907020       0.42512310 </v>
    <v>       0.22246037       0.11123018       0.48616232 </v>
    <v>       0.21984656       0.10992328       0.35936750 </v>
    <v>       0.86144408       0.72288815       0.54698310 </v>
    <v>       0.80606644       0.61213289       0.54820336 </v>
    <v>       0.86144408       0.13855592       0.54698310 </v>
    <v>       0.80606644       0.19393356       0.54820336 </v>
    <v>       0.27711185       0.13855592       0.54698310 </v>
    <v>       0.43372554       0.21686277       0.38040523 </v>
    <v>       0.43014831       0.21507415       0.59580183 </v>
    <v>       0.78313723       0.56627446       0.38040523 </v>
    <v>       0.78313723       0.21686277       0.38040523 </v>
    <v>       0.78492585       0.56985169       0.59580183 </v>
    <v>       0.78492585       0.21507415       0.59580183 </v>
    <v>       0.86222152       0.72444303       0.31718045 </v>
    <v>       0.97672088       0.83154496       0.35472392 </v>
    <v>       0.85482409       0.83154496       0.35472392 </v>
    <v>       0.86222152       0.13777848       0.31718045 </v>
    <v>       0.85482409       0.02327912       0.35472392 </v>
    <v>       0.97672088       0.14517591       0.35472392 </v>
    <v>       0.27555697       0.13777848       0.31718045 </v>
    <v>       0.16845504       0.14517591       0.35472392 </v>
    <v>       0.16845504       0.02327912       0.35472392 </v>
    <v>       0.88367612       0.76735225       0.59381604 </v>
    <v>       0.88367612       0.11632388       0.59381604 </v>
    <v>       0.23264775       0.11632388       0.59381604 </v>
   </varray>
  </structure>
  <varray name="forces" >
   <v>       0.00000000       0.00932541       0.00113651 </v>
   <v>       0.00807604      -0.00466271       0.00113651 </v>
   <v>      -0.00807604      -0.00466271       0.00113651 </v>
   <v>      -0.00000000       0.00660715       0.00398428 </v>
   <v>       0.00572196      -0.00330357       0.00398428 </v>
   <v>      -0.00572196      -0.00330357       0.00398428 </v>
   <v>       0.00503584       0.00290744      -0.00021859 </v>
   <v>       0.00130004       0.00075058       0.00246903 </v>
   <v>      -0.00048364      -0.00027923       0.00071436 </v>
   <v>       0.00499548       0.00288414      -0.00323838 </v>
   <v>      -0.00503584       0.00290744      -0.00021859 </v>
   <v>       0.00000000      -0.00581488      -0.00021859 </v>
   <v>      -0.00000000      -0.00150116       0.00246903 </v>
   <v>      -0.00130004       0.00075058       0.00246903 </v>
   <v>      -0.00404662       0.00233632       0.00145537 </v>
   <v>       0.00404662       0.00233632       0.00145537 </v>
   <v>      -0.00000000      -0.00467263       0.00145537 </v>
   <v>       0.00000000       0.00055846       0.00071436 </v>
   <v>       0.00000000       0.00146065       0.00069960 </v>
   <v>       0.00000000      -0.00104418       0.00329139 </v>
   <v>       0.00000000      -0.00065333      -0.00041708 </v>
   <v>       0.00048364      -0.00027923       0.00071436 </v>
   <v>       0.00126496      -0.00073033       0.00069960 </v>
   <v>      -0.00090429       0.00052209       0.00329139 </v>
   <v>      -0.00056580       0.00032666      -0.00041708 </v>
   <v>      -0.00126496      -0.00073033       0.00069960 </v>
   <v>       0.00090429       0.00052209       0.00329139 </v>
   <v>       0.00056580       0.00032666      -0.00041708 </v>
   <v>       0.00000000      -0.00288244       0.00396462 </v>
   <v>      -0.00000000      -0.00576829      -0.00323838 </v>
   <v>      -0.00249627       0.00144122       0.00396462 </v>
   <v>      -0.00499548       0.00288414      -0.00323838 </v>
   <v>       0.00249627       0.00144122       0.00396462 </v>
   <v>       0.00357131       0.00206190      -0.00299606 </v>
   <v>       0.00127679       0.00073716      -0.00562322 </v>
   <v>       0.00000000      -0.00412379      -0.00299606 </v>
   <v>      -0.00357131       0.00206190      -0.00299606 </v>
   <v>      -0.00000000      -0.00147431      -0.00562322 </v>
   <v>      -0.00127679       0.00073716      -0.00562322 </v>
   <v>       0.00000000       0.00947883      -0.00251579 </v>
   <v>      -0.00119358       0.00099927       0.00092594 </v>
   <v>       0.00119358       0.00099927       0.00092594 </v>
   <v>       0.00820891      -0.00473942      -0.00251579 </v>
   <v>       0.00146218       0.00053404       0.00092594 </v>
   <v>       0.00026860      -0.00153331       0.00092594 </v>
   <v>      -0.00820891      -0.00473942      -0.00251579 </v>
   <v>      -0.00026860      -0.00153331       0.00092594 </v>
   <v>      -0.00146218       0.00053404       0.00092594 </v>
   <v>       0.00000000       0.00302516      -0.00455791 </v>
   <v>       0.00261987      -0.00151258      -0.00455791 </v>
   <v>      -0.00261987      -0.00151258      -0.00455791 </v>
  </varray>
  <varray name="stress" >
   <v>      -0.00068247      -0.00000000       0.00000000 </v>
   <v>       0.00000000      -0.00068247      -0.00000000 </v>
   <v>       0.00000000      -0.00000000      -0.29319136 </v>
  </varray>
  <energy>
   <i name="e_fr_energy">   -358.88760383 </i>
   <i name="e_wo_entrp">   -358.88760383 </i>
   <i name="e_0_energy">     -0.00000000 </i>
  </energy>
  <time name="totalsc">  487.12  492.61</time>
  <eigenvalues>
   <array>
    <dimension dim="1">band</dimension>
    <dimension dim="2">kpoint</dimension>
    <dimension dim="3">spin</dimension>
    <field>eigene</field>
    <field>occ</field>
    <set>
     <set comment="spin 1">
      <set comment="kpoint 1">
       <r>  -25.1563    1.0000 </r>
       <r>  -25.0903    1.0000 </r>
       <r>  -22.2051    1.0000 </r>
       <r>  -22.2051    1.0000 </r>
       <r>  -22.0896    1.0000 </r>
       <r>  -22.0895    1.0000 </r>
       <r>  -20.9265    1.0000 </r>
       <r>  -20.8319    1.0000 </r>
       <r>  -20.8319    1.0000 </r>
       <r>  -18.9697    1.0000 </r>
       <r>  -18.9696    1.0000 </r>
       <r>  -18.7887    1.0000 </r>
       <r>  -18.4625    1.0000 </r>
       <r>  -18.4624    1.0000 </r>
       <r>  -18.2785    1.0000 </r>
       <r>  -17.0690    1.0000 </r>
       <r>  -17.0688    1.0000 </r>
       <r>  -16.5206    1.0000 </r>
       <r>  -16.5088    1.0000 </r>
       <r>  -16.5087    1.0000 </r>
       <r>  -15.3768    1.0000 </r>
       <r>  -15.3767    1.0000 </r>
       <r>  -15.2730    1.0000 </r>
       <r>  -14.2958    1.0000 </r>
       <r>  -14.2957    1.0000 </r>
       <r>  -14.2734    1.0000 </r>
       <r>  -13.3399    1.0000 </r>
       <r>  -13.3398    1.0000 </r>
       <r>  -13.2900    1.0000 </r>
       <r>  -13.2188    1.0000 </r>
       <r>  -12.5738    1.0000 </r>
       <r>  -12.1975    1.0000 </r>
       <r>  -11.7287    1.0000 </r>
       <r>  -11.6791    1.0000 </r>
       <r>  -11.6790    1.0000 </r>
       <r>  -11.2119    1.0000 </r>
       <r>  -11.2117    1.0000 </r>
       <r>  -10.5764    1.0000 </r>
       <r>  -10.4371    1.0000 </r>
       <r>  -10.4370    1.0000 </r>
       <r>  -10.1398    1.0000 </r>
       <r>   -9.8501    1.0000 </r>
       <r>   -9.8480    1.0000 </r>
       <r>   -9.8479    1.0000 </r>
       <r>   -9.6408    1.0000 </r>
       <r>   -9.5741    1.0000 </r>
       <r>   -9.5739    1.0000 </r>
       <r>   -9.4629    1.0000 </r>
       <r>   -9.4452    1.0000 </r>
       <r>   -9.4452    1.0000 </r>
       <r>   -9.2939    1.0000 </r>
       <r>   -8.8947    1.0000 </r>
       <r>   -8.8947    1.0000 </r>
       <r>   -8.7672    1.0000 </r>
       <r>   -8.2963    1.0000 </r>
       <r>   -8.2700    1.0000 </r>
       <r>   -8.2699    1.0000 </r>
       <r>   -8.1558    1.0000 </r>
       <r>   -8.1557    1.0000 </r>
       <r>   -8.1136    1.0000 </r>
       <r>   -7.8803    1.0000 </r>
       <r>   -7.8802    1.0000 </r>
       <r>   -7.7575    1.0000 </r>
       <r>   -7.7228    1.0000 </r>
       <r>   -7.4036    1.0000 </r>
       <r>   -7.4035    1.0000 </r>
       <r>   -7.2587    1.0000 </r>
       <r>   -7.2586    1.0000 </r>
       <r>   -5.9161    1.0000 </r>
       <r>   -5.9159    1.0000 </r>
       <r>   -5.7058    1.0000 </r>
       <r>   -5.6354    1.0000 </r>
       <r>   -5.6353    1.0000 </r>
       <r>   -5.6129    1.0000 </r>
       <r>   -5.6128    1.0000 </r>
       <r>   -5.4488    1.0000 </r>
       <r>   -5.4178    1.0000 </r>
       <r>   -5.4177    1.0000 </r>
       <r>   -1.8931    0.0000 </r>
       <r>   -1.8931    0.0000 </r>
       <r>   -1.8121    0.0000 </r>
       <r>   -1.8120    0.0000 </r>
       <r>   -0.9276    0.0000 </r>
       <r>   -0.9275    0.0000 </r>
       <r>   -0.6260    0.0000 </r>
       <r>   -0.5947    0.0000 </r>
       <r>   -0.5946    0.0000 </r>
       <r>   -0.4979    0.0000 </r>
       <r>   -0.0975    0.0000 </r>
       <r>    0.1535    0.0000 </r>
       <r>    0.4496    0.0000 </r>
       <r>    0.7653    0.0000 </r>
       <r>    0.7763    0.0000 </r>
       <r>    0.7763    0.0000 </r>
       <r>    0.8326    0.0000 </r>
       <r>    0.9781    0.0000 </r>
       <r>    0.9783    0.0000 </r>
       <r>    1.0450    0.0000 </r>
       <r>    1.1269    0.0000 </r>
       <r>    1.1270    0.0000 </r>
       <r>    1.4833    0.0000 </r>
       <r>    1.4834    0.0000 </r>
       <r>    1.5500    0.0000 </r>
       <r>    1.6208    0.0000 </r>
       <r>    1.6737    0.0000 </r>
       <r>    1.6875    0.0000 </r>
       <r>    1.6877    0.0000 </r>
       <r>    1.7467    0.0000 </r>
       <r>    1.7549    0.0000 </r>
       <r>    1.7549    0.0000 </r>
       <r>    1.8264    0.0000 </r>
       <r>    1.9433    0.0000 </r>
      </set>
      <set comment="kpoint 2">
       <r>  -25.1563    1.0000 </r>
       <r>  -25.0903    1.0000 </r>
       <r>  -22.2051    1.0000 </r>
       <r>  -22.2050    1.0000 </r>
       <r>  -22.0896    1.0000 </r>
       <r>  -22.0895    1.0000 </r>
       <r>  -20.9263    1.0000 </r>
       <r>  -20.8321    1.0000 </r>
       <r>  -20.8319    1.0000 </r>
       <r>  -18.9696    1.0000 </r>
       <r>  -18.9694    1.0000 </r>
       <r>  -18.7889    1.0000 </r>
       <r>  -18.4624    1.0000 </r>
       <r>  -18.4623    1.0000 </r>
       <r>  -18.2791    1.0000 </r>
       <r>  -17.0689    1.0000 </r>
       <r>  -17.0675    1.0000 </r>
       <r>  -16.5206    1.0000 </r>
       <r>  -16.5088    1.0000 </r>
       <r>  -16.5087    1.0000 </r>
       <r>  -15.4014    1.0000 </r>
       <r>  -15.3767    1.0000 </r>
       <r>  -15.2481    1.0000 </r>
       <r>  -14.2959    1.0000 </r>
       <r>  -14.2957    1.0000 </r>
       <r>  -14.2731    1.0000 </r>
       <r>  -13.3419    1.0000 </r>
       <r>  -13.3399    1.0000 </r>
       <r>  -13.2900    1.0000 </r>
       <r>  -13.2188    1.0000 </r>
       <r>  -12.5737    1.0000 </r>
       <r>  -12.1997    1.0000 </r>
       <r>  -11.7285    1.0000 </r>
       <r>  -11.6791    1.0000 </r>
       <r>  -11.6747    1.0000 </r>
       <r>  -11.2133    1.0000 </r>
       <r>  -11.2118    1.0000 </r>
       <r>  -10.5748    1.0000 </r>
       <r>  -10.4379    1.0000 </r>
       <r>  -10.4369    1.0000 </r>
       <r>  -10.1398    1.0000 </r>
       <r>   -9.8539    1.0000 </r>
       <r>   -9.8477    1.0000 </r>
       <r>   -9.8448    1.0000 </r>
       <r>   -9.6409    1.0000 </r>
       <r>   -9.5769    1.0000 </r>
       <r>   -9.5740    1.0000 </r>
       <r>   -9.4648    1.0000 </r>
       <r>   -9.4452    1.0000 </r>
       <r>   -9.4446    1.0000 </r>
       <r>   -9.2899    1.0000 </r>
       <r>   -8.8950    1.0000 </r>
       <r>   -8.8947    1.0000 </r>
       <r>   -8.7667    1.0000 </r>
       <r>   -8.2979    1.0000 </r>
       <r>   -8.2700    1.0000 </r>
       <r>   -8.2692    1.0000 </r>
       <r>   -8.1559    1.0000 </r>
       <r>   -8.1554    1.0000 </r>
       <r>   -8.1141    1.0000 </r>
       <r>   -7.8795    1.0000 </r>
       <r>   -7.8795    1.0000 </r>
       <r>   -7.7580    1.0000 </r>
       <r>   -7.7229    1.0000 </r>
       <r>   -7.4035    1.0000 </r>
       <r>   -7.4031    1.0000 </r>
       <r>   -7.2588    1.0000 </r>
       <r>   -7.2586    1.0000 </r>
       <r>   -5.9162    1.0000 </r>
       <r>   -5.9159    1.0000 </r>
       <r>   -5.7062    1.0000 </r>
       <r>   -5.6354    1.0000 </r>
       <r>   -5.6352    1.0000 </r>
       <r>   -5.6127    1.0000 </r>
       <r>   -5.6125    1.0000 </r>
       <r>   -5.4491    1.0000 </r>
       <r>   -5.4178    1.0000 </r>
       <r>   -5.4176    1.0000 </r>
       <r>   -1.8934    0.0000 </r>
       <r>   -1.8932    0.0000 </r>
       <r>   -1.8119    0.0000 </r>
       <r>   -1.8117    0.0000 </r>
       <r>   -0.9275    0.0000 </r>
       <r>   -0.9270    0.0000 </r>
       <r>   -0.6261    0.0000 </r>
       <r>   -0.5948    0.0000 </r>
       <r>   -0.5947    0.0000 </r>
       <r>   -0.4985    0.0000 </r>
       <r>   -0.0970    0.0000 </r>
       <r>    0.1539    0.0000 </r>
       <r>    0.4478    0.0000 </r>
       <r>    0.7651    0.0000 </r>
       <r>    0.7755    0.0000 </r>
       <r>    0.7773    0.0000 </r>
       <r>    0.8286    0.0000 </r>
       <r>    0.9780    0.0000 </r>
       <r>    0.9815    0.0000 </r>
       <r>    1.0445    0.0000 </r>
       <r>    1.1284    0.0000 </r>
       <r>    1.1305    0.0000 </r>
       <r>    1.4800    0.0000 </r>
       <r>    1.4850    0.0000 </r>
       <r>    1.5525    0.0000 </r>
       <r>    1.6138    0.0000 </r>
       <r>    1.6646    0.0000 </r>
       <r>    1.6809    0.0000 </r>
       <r>    1.6883    0.0000 </r>
       <r>    1.7455    0.0000 </r>
       <r>    1.7624    0.0000 </r>
       <r>    1.7798    0.0000 </r>
       <r>    1.8375    0.0000 </r>
       <r>    1.9534    0.0000 </r>
      </set>
      <set comment="kpoint 3">
       <r>  -25.1562    1.0000 </r>
       <r>  -25.0903    1.0000 </r>
       <r>  -22.2051    1.0000 </r>
       <r>  -22.2047    1.0000 </r>
       <r>  -22.0900    1.0000 </r>
       <r>  -22.0895    1.0000 </r>
       <r>  -20.9259    1.0000 </r>
       <r>  -20.8324    1.0000 </r>
       <r>  -20.8319    1.0000 </r>
       <r>  -18.9696    1.0000 </r>
       <r>  -18.9686    1.0000 </r>
       <r>  -18.7896    1.0000 </r>
       <r>  -18.4624    1.0000 </r>
       <r>  -18.4620    1.0000 </r>
       <r>  -18.2808    1.0000 </r>
       <r>  -17.0689    1.0000 </r>
       <r>  -17.0633    1.0000 </r>
       <r>  -16.5206    1.0000 </r>
       <r>  -16.5088    1.0000 </r>
       <r>  -16.5086    1.0000 </r>
       <r>  -15.4485    1.0000 </r>
       <r>  -15.3767    1.0000 </r>
       <r>  -15.2003    1.0000 </r>
       <r>  -14.2963    1.0000 </r>
       <r>  -14.2957    1.0000 </r>
       <r>  -14.2723    1.0000 </r>
       <r>  -13.3480    1.0000 </r>
       <r>  -13.3399    1.0000 </r>
       <r>  -13.2900    1.0000 </r>
       <r>  -13.2188    1.0000 </r>
       <r>  -12.5736    1.0000 </r>
       <r>  -12.2062    1.0000 </r>
       <r>  -11.7276    1.0000 </r>
       <r>  -11.6792    1.0000 </r>
       <r>  -11.6621    1.0000 </r>
       <r>  -11.2177    1.0000 </r>
       <r>  -11.2118    1.0000 </r>
       <r>  -10.5701    1.0000 </r>
       <r>  -10.4404    1.0000 </r>
       <r>  -10.4367    1.0000 </r>
       <r>  -10.1397    1.0000 </r>
       <r>   -9.8593    1.0000 </r>
       <r>   -9.8472    1.0000 </r>
       <r>   -9.8415    1.0000 </r>
       <r>   -9.6413    1.0000 </r>
       <r>   -9.5853    1.0000 </r>
       <r>   -9.5742    1.0000 </r>
       <r>   -9.4694    1.0000 </r>
       <r>   -9.4451    1.0000 </r>
       <r>   -9.4439    1.0000 </r>
       <r>   -9.2788    1.0000 </r>
       <r>   -8.8957    1.0000 </r>
       <r>   -8.8949    1.0000 </r>
       <r>   -8.7651    1.0000 </r>
       <r>   -8.3023    1.0000 </r>
       <r>   -8.2700    1.0000 </r>
       <r>   -8.2676    1.0000 </r>
       <r>   -8.1564    1.0000 </r>
       <r>   -8.1542    1.0000 </r>
       <r>   -8.1155    1.0000 </r>
       <r>   -7.8774    1.0000 </r>
       <r>   -7.8772    1.0000 </r>
       <r>   -7.7599    1.0000 </r>
       <r>   -7.7234    1.0000 </r>
       <r>   -7.4035    1.0000 </r>
       <r>   -7.4019    1.0000 </r>
       <r>   -7.2592    1.0000 </r>
       <r>   -7.2586    1.0000 </r>
       <r>   -5.9170    1.0000 </r>
       <r>   -5.9154    1.0000 </r>
       <r>   -5.7076    1.0000 </r>
       <r>   -5.6354    1.0000 </r>
       <r>   -5.6348    1.0000 </r>
       <r>   -5.6122    1.0000 </r>
       <r>   -5.6118    1.0000 </r>
       <r>   -5.4497    1.0000 </r>
       <r>   -5.4180    1.0000 </r>
       <r>   -5.4173    1.0000 </r>
       <r>   -1.8943    0.0000 </r>
       <r>   -1.8936    0.0000 </r>
       <r>   -1.8115    0.0000 </r>
       <r>   -1.8106    0.0000 </r>
       <r>   -0.9275    0.0000 </r>
       <r>   -0.9252    0.0000 </r>
       <r>   -0.6265    0.0000 </r>
       <r>   -0.5950    0.0000 </r>
       <r>   -0.5947    0.0000 </r>
       <r>   -0.5003    0.0000 </r>
       <r>   -0.0955    0.0000 </r>
       <r>    0.1552    0.0000 </r>
       <r>    0.4426    0.0000 </r>
       <r>    0.7648    0.0000 </r>
       <r>    0.7729    0.0000 </r>
       <r>    0.7789    0.0000 </r>
       <r>    0.8191    0.0000 </r>
       <r>    0.9774    0.0000 </r>
       <r>    0.9890    0.0000 </r>
       <r>    1.0448    0.0000 </r>
       <r>    1.1330    0.0000 </r>
       <r>    1.1400    0.0000 </r>
       <r>    1.4715    0.0000 </r>
       <r>    1.4898    0.0000 </r>
       <r>    1.5577    0.0000 </r>
       <r>    1.5941    0.0000 </r>
       <r>    1.6458    0.0000 </r>
       <r>    1.6660    0.0000 </r>
       <r>    1.6948    0.0000 </r>
       <r>    1.7548    0.0000 </r>
       <r>    1.7809    0.0000 </r>
       <r>    1.8124    0.0000 </r>
       <r>    1.8340    0.0000 </r>
       <r>    1.9506    0.0000 </r>
      </set>
      <set comment="kpoint 4">
       <r>  -25.1562    1.0000 </r>
       <r>  -25.0903    1.0000 </r>
       <r>  -22.2051    1.0000 </r>
       <r>  -22.2042    1.0000 </r>
       <r>  -22.0906    1.0000 </r>
       <r>  -22.0895    1.0000 </r>
       <r>  -20.9251    1.0000 </r>
       <r>  -20.8331    1.0000 </r>
       <r>  -20.8319    1.0000 </r>
       <r>  -18.9696    1.0000 </r>
       <r>  -18.9672    1.0000 </r>
       <r>  -18.7907    1.0000 </r>
       <r>  -18.4624    1.0000 </r>
       <r>  -18.4615    1.0000 </r>
       <r>  -18.2835    1.0000 </r>
       <r>  -17.0689    1.0000 </r>
       <r>  -17.0564    1.0000 </r>
       <r>  -16.5207    1.0000 </r>
       <r>  -16.5088    1.0000 </r>
       <r>  -16.5083    1.0000 </r>
       <r>  -15.5003    1.0000 </r>
       <r>  -15.3767    1.0000 </r>
       <r>  -15.1472    1.0000 </r>
       <r>  -14.2970    1.0000 </r>
       <r>  -14.2957    1.0000 </r>
       <r>  -14.2710    1.0000 </r>
       <r>  -13.3581    1.0000 </r>
       <r>  -13.3399    1.0000 </r>
       <r>  -13.2900    1.0000 </r>
       <r>  -13.2188    1.0000 </r>
       <r>  -12.5735    1.0000 </r>
       <r>  -12.2162    1.0000 </r>
       <r>  -11.7257    1.0000 </r>
       <r>  -11.6793    1.0000 </r>
       <r>  -11.6424    1.0000 </r>
       <r>  -11.2247    1.0000 </r>
       <r>  -11.2118    1.0000 </r>
       <r>  -10.5625    1.0000 </r>
       <r>  -10.4445    1.0000 </r>
       <r>  -10.4364    1.0000 </r>
       <r>  -10.1397    1.0000 </r>
       <r>   -9.8654    1.0000 </r>
       <r>   -9.8463    1.0000 </r>
       <r>   -9.8387    1.0000 </r>
       <r>   -9.6419    1.0000 </r>
       <r>   -9.5985    1.0000 </r>
       <r>   -9.5746    1.0000 </r>
       <r>   -9.4745    1.0000 </r>
       <r>   -9.4451    1.0000 </r>
       <r>   -9.4436    1.0000 </r>
       <r>   -9.2624    1.0000 </r>
       <r>   -8.8967    1.0000 </r>
       <r>   -8.8951    1.0000 </r>
       <r>   -8.7626    1.0000 </r>
       <r>   -8.3090    1.0000 </r>
       <r>   -8.2701    1.0000 </r>
       <r>   -8.2656    1.0000 </r>
       <r>   -8.1573    1.0000 </r>
       <r>   -8.1521    1.0000 </r>
       <r>   -8.1177    1.0000 </r>
       <r>   -7.8741    1.0000 </r>
       <r>   -7.8734    1.0000 </r>
       <r>   -7.7629    1.0000 </r>
       <r>   -7.7241    1.0000 </r>
       <r>   -7.4034    1.0000 </r>
       <r>   -7.4000    1.0000 </r>
       <r>   -7.2599    1.0000 </r>
       <r>   -7.2586    1.0000 </r>
       <r>   -5.9182    1.0000 </r>
       <r>   -5.9145    1.0000 </r>
       <r>   -5.7098    1.0000 </r>
       <r>   -5.6355    1.0000 </r>
       <r>   -5.6342    1.0000 </r>
       <r>   -5.6114    1.0000 </r>
       <r>   -5.6105    1.0000 </r>
       <r>   -5.4508    1.0000 </r>
       <r>   -5.4184    1.0000 </r>
       <r>   -5.4168    1.0000 </r>
       <r>   -1.8957    0.0000 </r>
       <r>   -1.8943    0.0000 </r>
       <r>   -1.8108    0.0000 </r>
       <r>   -1.8090    0.0000 </r>
       <r>   -0.9275    0.0000 </r>
       <r>   -0.9224    0.0000 </r>
       <r>   -0.6271    0.0000 </r>
       <r>   -0.5953    0.0000 </r>
       <r>   -0.5948    0.0000 </r>
       <r>   -0.5034    0.0000 </r>
       <r>   -0.0929    0.0000 </r>
       <r>    0.1573    0.0000 </r>
       <r>    0.4344    0.0000 </r>
       <r>    0.7634    0.0000 </r>
       <r>    0.7689    0.0000 </r>
       <r>    0.7773    0.0000 </r>
       <r>    0.8111    0.0000 </r>
       <r>    0.9761    0.0000 </r>
       <r>    0.9955    0.0000 </r>
       <r>    1.0503    0.0000 </r>
       <r>    1.1405    0.0000 </r>
       <r>    1.1535    0.0000 </r>
       <r>    1.4608    0.0000 </r>
       <r>    1.4976    0.0000 </r>
       <r>    1.5527    0.0000 </r>
       <r>    1.5765    0.0000 </r>
       <r>    1.6286    0.0000 </r>
       <r>    1.6487    0.0000 </r>
       <r>    1.7073    0.0000 </r>
       <r>    1.7695    0.0000 </r>
       <r>    1.8026    0.0000 </r>
       <r>    1.8348    0.0000 </r>
       <r>    1.8518    0.0000 </r>
       <r>    1.9527    0.0000 </r>
      </set>
      <set comment="kpoint 5">
       <r>  -25.1562    1.0000 </r>
       <r>  -25.0903    1.0000 </r>
       <r>  -22.2051    1.0000 </r>
       <r>  -22.2035    1.0000 </r>
       <r>  -22.0914    1.0000 </r>
       <r>  -22.0895    1.0000 </r>
       <r>  -20.9240    1.0000 </r>
       <r>  -20.8340    1.0000 </r>
       <r>  -20.8319    1.0000 </r>
       <r>  -18.9696    1.0000 </r>
       <r>  -18.9654    1.0000 </r>
       <r>  -18.7922    1.0000 </r>
       <r>  -18.4624    1.0000 </r>
       <r>  -18.4608    1.0000 </r>
       <r>  -18.2873    1.0000 </r>
       <r>  -17.0689    1.0000 </r>
       <r>  -17.0468    1.0000 </r>
       <r>  -16.5207    1.0000 </r>
       <r>  -16.5088    1.0000 </r>
       <r>  -16.5079    1.0000 </r>
       <r>  -15.5531    1.0000 </r>
       <r>  -15.3766    1.0000 </r>
       <r>  -15.0926    1.0000 </r>
       <r>  -14.2980    1.0000 </r>
       <r>  -14.2957    1.0000 </r>
       <r>  -14.2692    1.0000 </r>
       <r>  -13.3720    1.0000 </r>
       <r>  -13.3400    1.0000 </r>
       <r>  -13.2899    1.0000 </r>
       <r>  -13.2189    1.0000 </r>
       <r>  -12.5732    1.0000 </r>
       <r>  -12.2287    1.0000 </r>
       <r>  -11.7227    1.0000 </r>
       <r>  -11.6795    1.0000 </r>
       <r>  -11.6166    1.0000 </r>
       <r>  -11.2342    1.0000 </r>
       <r>  -11.2118    1.0000 </r>
       <r>  -10.5525    1.0000 </r>
       <r>  -10.4500    1.0000 </r>
       <r>  -10.4359    1.0000 </r>
       <r>  -10.1396    1.0000 </r>
       <r>   -9.8723    1.0000 </r>
       <r>   -9.8450    1.0000 </r>
       <r>   -9.8365    1.0000 </r>
       <r>   -9.6428    1.0000 </r>
       <r>   -9.6156    1.0000 </r>
       <r>   -9.5751    1.0000 </r>
       <r>   -9.4792    1.0000 </r>
       <r>   -9.4451    1.0000 </r>
       <r>   -9.4440    1.0000 </r>
       <r>   -9.2425    1.0000 </r>
       <r>   -8.8981    1.0000 </r>
       <r>   -8.8954    1.0000 </r>
       <r>   -8.7592    1.0000 </r>
       <r>   -8.3174    1.0000 </r>
       <r>   -8.2701    1.0000 </r>
       <r>   -8.2636    1.0000 </r>
       <r>   -8.1585    1.0000 </r>
       <r>   -8.1491    1.0000 </r>
       <r>   -8.1204    1.0000 </r>
       <r>   -7.8696    1.0000 </r>
       <r>   -7.8684    1.0000 </r>
       <r>   -7.7671    1.0000 </r>
       <r>   -7.7249    1.0000 </r>
       <r>   -7.4033    1.0000 </r>
       <r>   -7.3974    1.0000 </r>
       <r>   -7.2609    1.0000 </r>
       <r>   -7.2585    1.0000 </r>
       <r>   -5.9199    1.0000 </r>
       <r>   -5.9134    1.0000 </r>
       <r>   -5.7128    1.0000 </r>
       <r>   -5.6356    1.0000 </r>
       <r>   -5.6334    1.0000 </r>
       <r>   -5.6102    1.0000 </r>
       <r>   -5.6089    1.0000 </r>
       <r>   -5.4521    1.0000 </r>
       <r>   -5.4189    1.0000 </r>
       <r>   -5.4161    1.0000 </r>
       <r>   -1.8976    0.0000 </r>
       <r>   -1.8952    0.0000 </r>
       <r>   -1.8099    0.0000 </r>
       <r>   -1.8068    0.0000 </r>
       <r>   -0.9275    0.0000 </r>
       <r>   -0.9183    0.0000 </r>
       <r>   -0.6279    0.0000 </r>
       <r>   -0.5958    0.0000 </r>
       <r>   -0.5950    0.0000 </r>
       <r>   -0.5075    0.0000 </r>
       <r>   -0.0893    0.0000 </r>
       <r>    0.1602    0.0000 </r>
       <r>    0.4236    0.0000 </r>
       <r>    0.7546    0.0000 </r>
       <r>    0.7636    0.0000 </r>
       <r>    0.7742    0.0000 </r>
       <r>    0.8108    0.0000 </r>
       <r>    0.9743    0.0000 </r>
       <r>    0.9987    0.0000 </r>
       <r>    1.0629    0.0000 </r>
       <r>    1.1509    0.0000 </r>
       <r>    1.1692    0.0000 </r>
       <r>    1.4496    0.0000 </r>
       <r>    1.5083    0.0000 </r>
       <r>    1.5230    0.0000 </r>
       <r>    1.5794    0.0000 </r>
       <r>    1.6142    0.0000 </r>
       <r>    1.6311    0.0000 </r>
       <r>    1.7234    0.0000 </r>
       <r>    1.7848    0.0000 </r>
       <r>    1.8243    0.0000 </r>
       <r>    1.8371    0.0000 </r>
       <r>    1.8843    0.0000 </r>
       <r>    1.9563    0.0000 </r>
      </set>
      <set comment="kpoint 6">
       <r>  -25.1562    1.0000 </r>
       <r>  -25.0903    1.0000 </r>
       <r>  -22.2051    1.0000 </r>
       <r>  -22.2027    1.0000 </r>
       <r>  -22.0924    1.0000 </r>
       <r>  -22.0895    1.0000 </r>
       <r>  -20.9226    1.0000 </r>
       <r>  -20.8351    1.0000 </r>
       <r>  -20.8319    1.0000 </r>
       <r>  -18.9696    1.0000 </r>
       <r>  -18.9630    1.0000 </r>
       <r>  -18.7942    1.0000 </r>
       <r>  -18.4624    1.0000 </r>
       <r>  -18.4598    1.0000 </r>
       <r>  -18.2920    1.0000 </r>
       <r>  -17.0690    1.0000 </r>
       <r>  -17.0348    1.0000 </r>
       <r>  -16.5208    1.0000 </r>
       <r>  -16.5088    1.0000 </r>
       <r>  -16.5073    1.0000 </r>
       <r>  -15.6059    1.0000 </r>
       <r>  -15.3766    1.0000 </r>
       <r>  -15.0376    1.0000 </r>
       <r>  -14.2993    1.0000 </r>
       <r>  -14.2957    1.0000 </r>
       <r>  -14.2668    1.0000 </r>
       <r>  -13.3896    1.0000 </r>
       <r>  -13.3400    1.0000 </r>
       <r>  -13.2898    1.0000 </r>
       <r>  -13.2190    1.0000 </r>
       <r>  -12.5729    1.0000 </r>
       <r>  -12.2429    1.0000 </r>
       <r>  -11.7186    1.0000 </r>
       <r>  -11.6797    1.0000 </r>
       <r>  -11.5861    1.0000 </r>
       <r>  -11.2458    1.0000 </r>
       <r>  -11.2118    1.0000 </r>
       <r>  -10.5409    1.0000 </r>
       <r>  -10.4565    1.0000 </r>
       <r>  -10.4353    1.0000 </r>
       <r>  -10.1395    1.0000 </r>
       <r>   -9.8798    1.0000 </r>
       <r>   -9.8434    1.0000 </r>
       <r>   -9.8348    1.0000 </r>
       <r>   -9.6439    1.0000 </r>
       <r>   -9.6351    1.0000 </r>
       <r>   -9.5757    1.0000 </r>
       <r>   -9.4834    1.0000 </r>
       <r>   -9.4450    1.0000 </r>
       <r>   -9.4450    1.0000 </r>
       <r>   -9.2205    1.0000 </r>
       <r>   -8.8996    1.0000 </r>
       <r>   -8.8958    1.0000 </r>
       <r>   -8.7551    1.0000 </r>
       <r>   -8.3274    1.0000 </r>
       <r>   -8.2703    1.0000 </r>
       <r>   -8.2618    1.0000 </r>
       <r>   -8.1603    1.0000 </r>
       <r>   -8.1450    1.0000 </r>
       <r>   -8.1234    1.0000 </r>
       <r>   -7.8643    1.0000 </r>
       <r>   -7.8624    1.0000 </r>
       <r>   -7.7725    1.0000 </r>
       <r>   -7.7260    1.0000 </r>
       <r>   -7.4031    1.0000 </r>
       <r>   -7.3942    1.0000 </r>
       <r>   -7.2622    1.0000 </r>
       <r>   -7.2585    1.0000 </r>
       <r>   -5.9219    1.0000 </r>
       <r>   -5.9119    1.0000 </r>
       <r>   -5.7164    1.0000 </r>
       <r>   -5.6357    1.0000 </r>
       <r>   -5.6327    1.0000 </r>
       <r>   -5.6087    1.0000 </r>
       <r>   -5.6068    1.0000 </r>
       <r>   -5.4538    1.0000 </r>
       <r>   -5.4196    1.0000 </r>
       <r>   -5.4154    1.0000 </r>
       <r>   -1.8998    0.0000 </r>
       <r>   -1.8962    0.0000 </r>
       <r>   -1.8087    0.0000 </r>
       <r>   -1.8042    0.0000 </r>
       <r>   -0.9275    0.0000 </r>
       <r>   -0.9132    0.0000 </r>
       <r>   -0.6289    0.0000 </r>
       <r>   -0.5964    0.0000 </r>
       <r>   -0.5954    0.0000 </r>
       <r>   -0.5126    0.0000 </r>
       <r>   -0.0848    0.0000 </r>
       <r>    0.1637    0.0000 </r>
       <r>    0.4108    0.0000 </r>
       <r>    0.7360    0.0000 </r>
       <r>    0.7575    0.0000 </r>
       <r>    0.7753    0.0000 </r>
       <r>    0.8153    0.0000 </r>
       <r>    0.9717    0.0000 </r>
       <r>    1.0006    0.0000 </r>
       <r>    1.0799    0.0000 </r>
       <r>    1.1640    0.0000 </r>
       <r>    1.1863    0.0000 </r>
       <r>    1.4384    0.0000 </r>
       <r>    1.4897    0.0000 </r>
       <r>    1.5217    0.0000 </r>
       <r>    1.5820    0.0000 </r>
       <r>    1.6059    0.0000 </r>
       <r>    1.6140    0.0000 </r>
       <r>    1.7408    0.0000 </r>
       <r>    1.7991    0.0000 </r>
       <r>    1.8388    0.0000 </r>
       <r>    1.8449    0.0000 </r>
       <r>    1.9080    0.0000 </r>
       <r>    1.9596    0.0000 </r>
      </set>
      <set comment="kpoint 7">
       <r>  -25.1562    1.0000 </r>
       <r>  -25.0903    1.0000 </r>
       <r>  -22.2051    1.0000 </r>
       <r>  -22.2017    1.0000 </r>
       <r>  -22.0936    1.0000 </r>
       <r>  -22.0895    1.0000 </r>
       <r>  -20.9210    1.0000 </r>
       <r>  -20.8365    1.0000 </r>
       <r>  -20.8319    1.0000 </r>
       <r>  -18.9696    1.0000 </r>
       <r>  -18.9602    1.0000 </r>
       <r>  -18.7966    1.0000 </r>
       <r>  -18.4624    1.0000 </r>
       <r>  -18.4587    1.0000 </r>
       <r>  -18.2975    1.0000 </r>
       <r>  -17.0690    1.0000 </r>
       <r>  -17.0205    1.0000 </r>
       <r>  -16.5210    1.0000 </r>
       <r>  -16.5088    1.0000 </r>
       <r>  -16.5065    1.0000 </r>
       <r>  -15.6581    1.0000 </r>
       <r>  -15.3765    1.0000 </r>
       <r>  -14.9828    1.0000 </r>
       <r>  -14.3008    1.0000 </r>
       <r>  -14.2957    1.0000 </r>
       <r>  -14.2637    1.0000 </r>
       <r>  -13.4107    1.0000 </r>
       <r>  -13.3401    1.0000 </r>
       <r>  -13.2897    1.0000 </r>
       <r>  -13.2191    1.0000 </r>
       <r>  -12.5726    1.0000 </r>
       <r>  -12.2579    1.0000 </r>
       <r>  -11.7134    1.0000 </r>
       <r>  -11.6799    1.0000 </r>
       <r>  -11.5519    1.0000 </r>
       <r>  -11.2591    1.0000 </r>
       <r>  -11.2118    1.0000 </r>
       <r>  -10.5291    1.0000 </r>
       <r>  -10.4631    1.0000 </r>
       <r>  -10.4346    1.0000 </r>
       <r>  -10.1394    1.0000 </r>
       <r>   -9.8880    1.0000 </r>
       <r>   -9.8415    1.0000 </r>
       <r>   -9.8338    1.0000 </r>
       <r>   -9.6561    1.0000 </r>
       <r>   -9.6452    1.0000 </r>
       <r>   -9.5764    1.0000 </r>
       <r>   -9.4871    1.0000 </r>
       <r>   -9.4462    1.0000 </r>
       <r>   -9.4450    1.0000 </r>
       <r>   -9.1977    1.0000 </r>
       <r>   -8.9010    1.0000 </r>
       <r>   -8.8963    1.0000 </r>
       <r>   -8.7503    1.0000 </r>
       <r>   -8.3388    1.0000 </r>
       <r>   -8.2704    1.0000 </r>
       <r>   -8.2603    1.0000 </r>
       <r>   -8.1627    1.0000 </r>
       <r>   -8.1399    1.0000 </r>
       <r>   -8.1263    1.0000 </r>
       <r>   -7.8584    1.0000 </r>
       <r>   -7.8554    1.0000 </r>
       <r>   -7.7790    1.0000 </r>
       <r>   -7.7271    1.0000 </r>
       <r>   -7.4029    1.0000 </r>
       <r>   -7.3904    1.0000 </r>
       <r>   -7.2637    1.0000 </r>
       <r>   -7.2584    1.0000 </r>
       <r>   -5.9242    1.0000 </r>
       <r>   -5.9102    1.0000 </r>
       <r>   -5.7205    1.0000 </r>
       <r>   -5.6358    1.0000 </r>
       <r>   -5.6320    1.0000 </r>
       <r>   -5.6070    1.0000 </r>
       <r>   -5.6045    1.0000 </r>
       <r>   -5.4556    1.0000 </r>
       <r>   -5.4204    1.0000 </r>
       <r>   -5.4146    1.0000 </r>
       <r>   -1.9023    0.0000 </r>
       <r>   -1.8974    0.0000 </r>
       <r>   -1.8075    0.0000 </r>
       <r>   -1.8014    0.0000 </r>
       <r>   -0.9275    0.0000 </r>
       <r>   -0.9071    0.0000 </r>
       <r>   -0.6301    0.0000 </r>
       <r>   -0.5972    0.0000 </r>
       <r>   -0.5960    0.0000 </r>
       <r>   -0.5186    0.0000 </r>
       <r>   -0.0793    0.0000 </r>
       <r>    0.1679    0.0000 </r>
       <r>    0.3965    0.0000 </r>
       <r>    0.7137    0.0000 </r>
       <r>    0.7507    0.0000 </r>
       <r>    0.7781    0.0000 </r>
       <r>    0.8211    0.0000 </r>
       <r>    0.9685    0.0000 </r>
       <r>    1.0040    0.0000 </r>
       <r>    1.0984    0.0000 </r>
       <r>    1.1797    0.0000 </r>
       <r>    1.2038    0.0000 </r>
       <r>    1.4245    0.0000 </r>
       <r>    1.4610    0.0000 </r>
       <r>    1.5376    0.0000 </r>
       <r>    1.5756    0.0000 </r>
       <r>    1.5979    0.0000 </r>
       <r>    1.6087    0.0000 </r>
       <r>    1.7557    0.0000 </r>
       <r>    1.8114    0.0000 </r>
       <r>    1.8438    0.0000 </r>
       <r>    1.8570    0.0000 </r>
       <r>    1.9352    0.0000 </r>
       <r>    1.9763    0.0000 </r>
      </set>
      <set comment="kpoint 8">
       <r>  -25.1562    1.0000 </r>
       <r>  -25.0903    1.0000 </r>
       <r>  -22.2051    1.0000 </r>
       <r>  -22.2006    1.0000 </r>
       <r>  -22.0950    1.0000 </r>
       <r>  -22.0895    1.0000 </r>
       <r>  -20.9191    1.0000 </r>
       <r>  -20.8380    1.0000 </r>
       <r>  -20.8319    1.0000 </r>
       <r>  -18.9696    1.0000 </r>
       <r>  -18.9569    1.0000 </r>
       <r>  -18.7994    1.0000 </r>
       <r>  -18.4624    1.0000 </r>
       <r>  -18.4573    1.0000 </r>
       <r>  -18.3036    1.0000 </r>
       <r>  -17.0690    1.0000 </r>
       <r>  -17.0043    1.0000 </r>
       <r>  -16.5212    1.0000 </r>
       <r>  -16.5088    1.0000 </r>
       <r>  -16.5055    1.0000 </r>
       <r>  -15.7094    1.0000 </r>
       <r>  -15.3764    1.0000 </r>
       <r>  -14.9287    1.0000 </r>
       <r>  -14.3027    1.0000 </r>
       <r>  -14.2957    1.0000 </r>
       <r>  -14.2599    1.0000 </r>
       <r>  -13.4350    1.0000 </r>
       <r>  -13.3402    1.0000 </r>
       <r>  -13.2896    1.0000 </r>
       <r>  -13.2192    1.0000 </r>
       <r>  -12.5722    1.0000 </r>
       <r>  -12.2729    1.0000 </r>
       <r>  -11.7073    1.0000 </r>
       <r>  -11.6802    1.0000 </r>
       <r>  -11.5149    1.0000 </r>
       <r>  -11.2737    1.0000 </r>
       <r>  -11.2118    1.0000 </r>
       <r>  -10.5205    1.0000 </r>
       <r>  -10.4668    1.0000 </r>
       <r>  -10.4338    1.0000 </r>
       <r>  -10.1394    1.0000 </r>
       <r>   -9.8967    1.0000 </r>
       <r>   -9.8393    1.0000 </r>
       <r>   -9.8333    1.0000 </r>
       <r>   -9.6775    1.0000 </r>
       <r>   -9.6468    1.0000 </r>
       <r>   -9.5771    1.0000 </r>
       <r>   -9.4905    1.0000 </r>
       <r>   -9.4476    1.0000 </r>
       <r>   -9.4449    1.0000 </r>
       <r>   -9.1747    1.0000 </r>
       <r>   -8.9022    1.0000 </r>
       <r>   -8.8968    1.0000 </r>
       <r>   -8.7450    1.0000 </r>
       <r>   -8.3513    1.0000 </r>
       <r>   -8.2705    1.0000 </r>
       <r>   -8.2590    1.0000 </r>
       <r>   -8.1656    1.0000 </r>
       <r>   -8.1337    1.0000 </r>
       <r>   -8.1291    1.0000 </r>
       <r>   -7.8520    1.0000 </r>
       <r>   -7.8479    1.0000 </r>
       <r>   -7.7865    1.0000 </r>
       <r>   -7.7284    1.0000 </r>
       <r>   -7.4027    1.0000 </r>
       <r>   -7.3861    1.0000 </r>
       <r>   -7.2655    1.0000 </r>
       <r>   -7.2583    1.0000 </r>
       <r>   -5.9268    1.0000 </r>
       <r>   -5.9082    1.0000 </r>
       <r>   -5.7249    1.0000 </r>
       <r>   -5.6359    1.0000 </r>
       <r>   -5.6314    1.0000 </r>
       <r>   -5.6051    1.0000 </r>
       <r>   -5.6019    1.0000 </r>
       <r>   -5.4576    1.0000 </r>
       <r>   -5.4213    1.0000 </r>
       <r>   -5.4137    1.0000 </r>
       <r>   -1.9048    0.0000 </r>
       <r>   -1.8987    0.0000 </r>
       <r>   -1.8061    0.0000 </r>
       <r>   -1.7983    0.0000 </r>
       <r>   -0.9275    0.0000 </r>
       <r>   -0.8999    0.0000 </r>
       <r>   -0.6313    0.0000 </r>
       <r>   -0.5980    0.0000 </r>
       <r>   -0.5970    0.0000 </r>
       <r>   -0.5253    0.0000 </r>
       <r>   -0.0729    0.0000 </r>
       <r>    0.1726    0.0000 </r>
       <r>    0.3814    0.0000 </r>
       <r>    0.6902    0.0000 </r>
       <r>    0.7437    0.0000 </r>
       <r>    0.7811    0.0000 </r>
       <r>    0.8272    0.0000 </r>
       <r>    0.9648    0.0000 </r>
       <r>    1.0105    0.0000 </r>
       <r>    1.1160    0.0000 </r>
       <r>    1.1975    0.0000 </r>
       <r>    1.2214    0.0000 </r>
       <r>    1.4011    0.0000 </r>
       <r>    1.4455    0.0000 </r>
       <r>    1.5553    0.0000 </r>
       <r>    1.5654    0.0000 </r>
       <r>    1.5832    0.0000 </r>
       <r>    1.6172    0.0000 </r>
       <r>    1.7625    0.0000 </r>
       <r>    1.8228    0.0000 </r>
       <r>    1.8513    0.0000 </r>
       <r>    1.8615    0.0000 </r>
       <r>    1.9482    0.0000 </r>
       <r>    1.9986    0.0000 </r>
      </set>
      <set comment="kpoint 9">
       <r>  -25.1562    1.0000 </r>
       <r>  -25.0903    1.0000 </r>
       <r>  -22.2051    1.0000 </r>
       <r>  -22.1993    1.0000 </r>
       <r>  -22.0965    1.0000 </r>
       <r>  -22.0895    1.0000 </r>
       <r>  -20.9169    1.0000 </r>
       <r>  -20.8398    1.0000 </r>
       <r>  -20.8319    1.0000 </r>
       <r>  -18.9696    1.0000 </r>
       <r>  -18.9532    1.0000 </r>
       <r>  -18.8025    1.0000 </r>
       <r>  -18.4624    1.0000 </r>
       <r>  -18.4557    1.0000 </r>
       <r>  -18.3103    1.0000 </r>
       <r>  -17.0691    1.0000 </r>
       <r>  -16.9864    1.0000 </r>
       <r>  -16.5215    1.0000 </r>
       <r>  -16.5088    1.0000 </r>
       <r>  -16.5042    1.0000 </r>
       <r>  -15.7595    1.0000 </r>
       <r>  -15.3763    1.0000 </r>
       <r>  -14.8754    1.0000 </r>
       <r>  -14.3048    1.0000 </r>
       <r>  -14.2957    1.0000 </r>
       <r>  -14.2553    1.0000 </r>
       <r>  -13.4621    1.0000 </r>
       <r>  -13.3403    1.0000 </r>
       <r>  -13.2895    1.0000 </r>
       <r>  -13.2193    1.0000 </r>
       <r>  -12.5718    1.0000 </r>
       <r>  -12.2875    1.0000 </r>
       <r>  -11.7003    1.0000 </r>
       <r>  -11.6805    1.0000 </r>
       <r>  -11.4761    1.0000 </r>
       <r>  -11.2892    1.0000 </r>
       <r>  -11.2118    1.0000 </r>
       <r>  -10.5207    1.0000 </r>
       <r>  -10.4623    1.0000 </r>
       <r>  -10.4330    1.0000 </r>
       <r>  -10.1394    1.0000 </r>
       <r>   -9.9058    1.0000 </r>
       <r>   -9.8369    1.0000 </r>
       <r>   -9.8337    1.0000 </r>
       <r>   -9.6985    1.0000 </r>
       <r>   -9.6486    1.0000 </r>
       <r>   -9.5779    1.0000 </r>
       <r>   -9.4938    1.0000 </r>
       <r>   -9.4491    1.0000 </r>
       <r>   -9.4448    1.0000 </r>
       <r>   -9.1522    1.0000 </r>
       <r>   -8.9032    1.0000 </r>
       <r>   -8.8973    1.0000 </r>
       <r>   -8.7392    1.0000 </r>
       <r>   -8.3650    1.0000 </r>
       <r>   -8.2707    1.0000 </r>
       <r>   -8.2579    1.0000 </r>
       <r>   -8.1691    1.0000 </r>
       <r>   -8.1314    1.0000 </r>
       <r>   -8.1264    1.0000 </r>
       <r>   -7.8454    1.0000 </r>
       <r>   -7.8400    1.0000 </r>
       <r>   -7.7949    1.0000 </r>
       <r>   -7.7297    1.0000 </r>
       <r>   -7.4025    1.0000 </r>
       <r>   -7.3815    1.0000 </r>
       <r>   -7.2675    1.0000 </r>
       <r>   -7.2582    1.0000 </r>
       <r>   -5.9296    1.0000 </r>
       <r>   -5.9059    1.0000 </r>
       <r>   -5.7296    1.0000 </r>
       <r>   -5.6360    1.0000 </r>
       <r>   -5.6308    1.0000 </r>
       <r>   -5.6029    1.0000 </r>
       <r>   -5.5991    1.0000 </r>
       <r>   -5.4597    1.0000 </r>
       <r>   -5.4223    1.0000 </r>
       <r>   -5.4129    1.0000 </r>
       <r>   -1.9074    0.0000 </r>
       <r>   -1.9001    0.0000 </r>
       <r>   -1.8046    0.0000 </r>
       <r>   -1.7952    0.0000 </r>
       <r>   -0.9275    0.0000 </r>
       <r>   -0.8919    0.0000 </r>
       <r>   -0.6327    0.0000 </r>
       <r>   -0.5988    0.0000 </r>
       <r>   -0.5986    0.0000 </r>
       <r>   -0.5324    0.0000 </r>
       <r>   -0.0656    0.0000 </r>
       <r>    0.1775    0.0000 </r>
       <r>    0.3658    0.0000 </r>
       <r>    0.6663    0.0000 </r>
       <r>    0.7367    0.0000 </r>
       <r>    0.7834    0.0000 </r>
       <r>    0.8337    0.0000 </r>
       <r>    0.9607    0.0000 </r>
       <r>    1.0204    0.0000 </r>
       <r>    1.1314    0.0000 </r>
       <r>    1.2171    0.0000 </r>
       <r>    1.2386    0.0000 </r>
       <r>    1.3718    0.0000 </r>
       <r>    1.4408    0.0000 </r>
       <r>    1.5559    0.0000 </r>
       <r>    1.5664    0.0000 </r>
       <r>    1.5781    0.0000 </r>
       <r>    1.6271    0.0000 </r>
       <r>    1.7592    0.0000 </r>
       <r>    1.8345    0.0000 </r>
       <r>    1.8588    0.0000 </r>
       <r>    1.8659    0.0000 </r>
       <r>    1.9574    0.0000 </r>
       <r>    2.0049    0.0000 </r>
      </set>
      <set comment="kpoint 10">
       <r>  -25.1562    1.0000 </r>
       <r>  -25.0903    1.0000 </r>
       <r>  -22.2051    1.0000 </r>
       <r>  -22.1980    1.0000 </r>
       <r>  -22.0981    1.0000 </r>
       <r>  -22.0895    1.0000 </r>
       <r>  -20.9146    1.0000 </r>
       <r>  -20.8418    1.0000 </r>
       <r>  -20.8319    1.0000 </r>
[...]
       <r>    0.1535    0.0000 </r>
       <r>    0.4496    0.0000 </r>
       <r>    0.7653    0.0000 </r>
       <r>    0.7763    0.0000 </r>
       <r>    0.7763    0.0000 </r>
       <r>    0.8326    0.0000 </r>
       <r>    0.9782    0.0000 </r>
       <r>    0.9783    0.0000 </r>
       <r>    1.0450    0.0000 </r>
       <r>    1.1269    0.0000 </r>
       <r>    1.1270    0.0000 </r>
       <r>    1.4834    0.0000 </r>
       <r>    1.4834    0.0000 </r>
       <r>    1.5500    0.0000 </r>
       <r>    1.6209    0.0000 </r>
       <r>    1.6741    0.0000 </r>
       <r>    1.6876    0.0000 </r>
       <r>    1.6879    0.0000 </r>
       <r>    1.7478    0.0000 </r>
       <r>    1.7549    0.0000 </r>
       <r>    1.7563    0.0000 </r>
       <r>    1.8378    0.0000 </r>
       <r>    1.9538    0.0000 </r>
      </set>
     </set>
    </set>
   </array>
  </eigenvalues>
  <separator name="orbital magnetization" >
   <v name="MAGDIPOLOUT">      0.00000000      0.00000000      0.00000000</v>
  </separator>
  <dos>
   <i name="efermi">     -5.30596155 </i>
   <total>
    <array>
     <dimension dim="1">gridpoints</dimension>
     <dimension dim="2">spin</dimension>
     <field>energy</field>
     <field>total</field>
     <field>integrated</field>
     <set>
      <set comment="spin 1">
       <r>   -26.5191     0.0000     0.0000 </r>
       <r>   -26.4192     0.0000     0.0000 </r>
       <r>   -26.3192     0.0000     0.0000 </r>
       <r>   -26.2193     0.0000     0.0000 </r>
       <r>   -26.1194     0.0000     0.0000 </r>
       <r>   -26.0194     0.0000     0.0000 </r>
       <r>   -25.9195     0.0000     0.0000 </r>
       <r>   -25.8195     0.0000     0.0000 </r>
       <r>   -25.7196     0.0000     0.0000 </r>
       <r>   -25.6196     0.0000     0.0000 </r>
       <r>   -25.5197     0.0000     0.0000 </r>
       <r>   -25.4197     0.0000     0.0000 </r>
       <r>   -25.3198     0.0000     0.0000 </r>
       <r>   -25.2199     0.0000     0.0000 </r>
       <r>   -25.1199    20.0114     2.0000 </r>
       <r>   -25.0200    20.0109     4.0000 </r>
       <r>   -24.9200     0.0000     4.0000 </r>
       <r>   -24.8201     0.0000     4.0000 </r>
       <r>   -24.7201     0.0000     4.0000 </r>
       <r>   -24.6202     0.0000     4.0000 </r>
       <r>   -24.5202     0.0000     4.0000 </r>
       <r>   -24.4203     0.0000     4.0000 </r>
       <r>   -24.3204     0.0000     4.0000 </r>
       <r>   -24.2204     0.0000     4.0000 </r>
       <r>   -24.1205     0.0000     4.0000 </r>
       <r>   -24.0205     0.0000     4.0000 </r>
       <r>   -23.9206     0.0000     4.0000 </r>
       <r>   -23.8206     0.0000     4.0000 </r>
       <r>   -23.7207     0.0000     4.0000 </r>
       <r>   -23.6207     0.0000     4.0000 </r>
       <r>   -23.5208     0.0000     4.0000 </r>
       <r>   -23.4209     0.0000     4.0000 </r>
       <r>   -23.3209     0.0000     4.0000 </r>
       <r>   -23.2210     0.0000     4.0000 </r>
       <r>   -23.1210     0.0000     4.0000 </r>
       <r>   -23.0211     0.0000     4.0000 </r>
       <r>   -22.9211     0.0000     4.0000 </r>
       <r>   -22.8212     0.0000     4.0000 </r>
       <r>   -22.7212     0.0000     4.0000 </r>
       <r>   -22.6213     0.0000     4.0000 </r>
       <r>   -22.5214     0.0000     4.0000 </r>
       <r>   -22.4214     0.0000     4.0000 </r>
       <r>   -22.3215     0.0000     4.0000 </r>
       <r>   -22.2215     0.2349     4.0235 </r>
       <r>   -22.1216    16.5697     8.0896 </r>
       <r>   -22.0216    27.3463    12.0000 </r>
       <r>   -21.9217     0.0000    12.0000 </r>
       <r>   -21.8217     0.0000    12.0000 </r>
       <r>   -21.7218     0.0000    12.0000 </r>
       <r>   -21.6219     0.0000    12.0000 </r>
       <r>   -21.5219     0.0000    12.0000 </r>
       <r>   -21.4220     0.0000    12.0000 </r>
       <r>   -21.3220     0.0000    12.0000 </r>
       <r>   -21.2221     0.0000    12.0000 </r>
       <r>   -21.1221     0.0000    12.0000 </r>
       <r>   -21.0222     0.0000    12.0000 </r>
       <r>   -20.9223     3.2262    12.3224 </r>
       <r>   -20.8223    49.3521    17.7992 </r>
       <r>   -20.7224     0.0000    18.0000 </r>
       <r>   -20.6224     0.0000    18.0000 </r>
       <r>   -20.5225     0.0000    18.0000 </r>
       <r>   -20.4225     0.0000    18.0000 </r>
       <r>   -20.3226     0.0000    18.0000 </r>
       <r>   -20.2226     0.0000    18.0000 </r>
       <r>   -20.1227     0.0000    18.0000 </r>
       <r>   -20.0228     0.0000    18.0000 </r>
       <r>   -19.9228     0.0000    18.0000 </r>
       <r>   -19.8229     0.0000    18.0000 </r>
       <r>   -19.7229     0.0000    18.0000 </r>
       <r>   -19.6230     0.0000    18.0000 </r>
       <r>   -19.5230     0.0000    18.0000 </r>
       <r>   -19.4231     0.0000    18.0000 </r>
       <r>   -19.3231     0.0000    18.0000 </r>
       <r>   -19.2232     0.0000    18.0000 </r>
       <r>   -19.1233     0.0000    18.0000 </r>
       <r>   -19.0233     0.0000    18.0000 </r>
       <r>   -18.9234    29.5399    20.9523 </r>
       <r>   -18.8234    15.4618    23.1455 </r>
       <r>   -18.7235     5.6684    24.0000 </r>
       <r>   -18.6235     0.0000    24.0000 </r>
       <r>   -18.5236     0.0000    24.0000 </r>
       <r>   -18.4236    38.2544    27.8233 </r>
       <r>   -18.3237    13.5256    29.3518 </r>
       <r>   -18.2238     5.0013    30.0000 </r>
       <r>   -18.1238     0.0000    30.0000 </r>
       <r>   -18.0239     0.0000    30.0000 </r>
       <r>   -17.9239     0.0000    30.0000 </r>
       <r>   -17.8240     0.0000    30.0000 </r>
       <r>   -17.7240     0.0000    30.0000 </r>
       <r>   -17.6241     0.0000    30.0000 </r>
       <r>   -17.5241     0.0000    30.0000 </r>
       <r>   -17.4242     0.0000    30.0000 </r>
       <r>   -17.3243     0.0000    30.0000 </r>
       <r>   -17.2243     0.0000    30.0000 </r>
       <r>   -17.1244     0.0000    30.0000 </r>
       <r>   -17.0244    23.9065    32.3893 </r>
       <r>   -16.9245     2.5432    32.7209 </r>
       <r>   -16.8245     2.8747    33.0873 </r>
       <r>   -16.7246     5.6691    34.0000 </r>
       <r>   -16.6246     0.0000    34.0000 </r>
       <r>   -16.5247     9.7640    34.9759 </r>
       <r>   -16.4248    15.0063    40.0000 </r>
       <r>   -16.3248     0.0000    40.0000 </r>
       <r>   -16.2249     0.0000    40.0000 </r>
       <r>   -16.1249     6.0383    40.6035 </r>
       <r>   -16.0250     2.1279    41.0794 </r>
       <r>   -15.9250     1.1901    41.2523 </r>
       <r>   -15.8251     1.0878    41.3754 </r>
       <r>   -15.7251     0.6724    41.5005 </r>
       <r>   -15.6252     0.6677    41.6334 </r>
       <r>   -15.5253     0.8249    41.7491 </r>
       <r>   -15.4253     1.0028    41.8669 </r>
       <r>   -15.3254    21.0116    44.0000 </r>
       <r>   -15.2254     1.3299    44.1329 </r>
       <r>   -15.1255     1.1026    44.2435 </r>
       <r>   -15.0255     0.9859    44.3652 </r>
       <r>   -14.9256     1.1658    44.4832 </r>
       <r>   -14.8257     0.8004    44.5800 </r>
       <r>   -14.7257     0.8344    44.7167 </r>
       <r>   -14.6258     1.3253    44.8658 </r>
       <r>   -14.5258     1.9561    45.0622 </r>
       <r>   -14.4259     6.8981    45.9895 </r>
       <r>   -14.3259    10.1431    47.0137 </r>
       <r>   -14.2260    33.4991    50.7815 </r>
       <r>   -14.1260     7.4239    51.6088 </r>
       <r>   -14.0261     2.3345    52.0000 </r>
       <r>   -13.9262     0.0000    52.0000 </r>
       <r>   -13.8262     3.4162    52.3414 </r>
       <r>   -13.7263     5.3207    52.9651 </r>
       <r>   -13.6263     1.5052    53.1505 </r>
       <r>   -13.5264     1.4244    53.3424 </r>
       <r>   -13.4264     1.9128    53.5578 </r>
       <r>   -13.3265    23.5434    55.9531 </r>
       <r>   -13.2265    23.4047    58.3392 </r>
       <r>   -13.1266     0.0000    60.0000 </r>
       <r>   -13.0267     0.0000    60.0000 </r>
       <r>   -12.9267     0.0000    60.0000 </r>
       <r>   -12.8268     0.0000    60.0000 </r>
       <r>   -12.7268     0.0000    60.0000 </r>
       <r>   -12.6269     0.0000    60.0000 </r>
       <r>   -12.5269    20.0112    62.0000 </r>
       <r>   -12.4270     0.0000    62.0000 </r>
       <r>   -12.3270    12.7416    63.2734 </r>
       <r>   -12.2271     3.6015    63.7266 </r>
       <r>   -12.1272     1.6670    64.0000 </r>
       <r>   -12.0272     0.0000    64.0000 </r>
       <r>   -11.9273     0.0000    64.0000 </r>
       <r>   -11.8273     0.0000    64.0000 </r>
       <r>   -11.7274     1.5314    64.1531 </r>
       <r>   -11.6274    28.1208    67.2773 </r>
       <r>   -11.5275     7.3748    68.4371 </r>
       <r>   -11.4275    10.7470    69.5741 </r>
       <r>   -11.3276     3.1937    70.0192 </r>
       <r>   -11.2277     5.0901    70.6754 </r>
       <r>   -11.1277     1.7463    73.1079 </r>
       <r>   -11.0278     3.4604    73.6792 </r>
       <r>   -10.9278     2.3346    74.0000 </r>
       <r>   -10.8279     0.3489    74.0349 </r>
       <r>   -10.7279     3.7001    74.5698 </r>
       <r>   -10.6280     4.1385    75.1137 </r>
       <r>   -10.5280     7.0909    75.8421 </r>
       <r>   -10.4281    16.5667    77.6557 </r>
       <r>   -10.3282     2.7466    79.0078 </r>
       <r>   -10.2282     8.6694    80.0000 </r>
       <r>   -10.1283    19.5408    81.9530 </r>
       <r>   -10.0283     0.0000    82.0000 </r>
       <r>    -9.9284    13.9162    83.3908 </r>
       <r>    -9.8284    27.3601    86.6346 </r>
       <r>    -9.7285    13.7380    89.3730 </r>
       <r>    -9.6286    22.3221    91.6643 </r>
       <r>    -9.5286    20.4681    94.0458 </r>
       <r>    -9.4287    48.4042    99.9712 </r>
       <r>    -9.3287     0.0000   100.0000 </r>
       <r>    -9.2288     3.2057   100.3204 </r>
       <r>    -9.1288     2.3066   100.5972 </r>
       <r>    -9.0289     5.1314   101.1795 </r>
       <r>    -8.9289     0.0036   102.0004 </r>
       <r>    -8.8290    40.0188   106.0000 </r>
       <r>    -8.7291     6.2534   106.6250 </r>
       <r>    -8.6291    11.4395   107.9433 </r>
       <r>    -8.5292     1.2902   108.1289 </r>
       <r>    -8.4292     7.3379   109.2001 </r>
       <r>    -8.3293     4.4282   109.7426 </r>
       <r>    -8.2293    30.5973   113.3581 </r>
       <r>    -8.1294    43.2688   117.9912 </r>
       <r>    -8.0294     7.6792   119.4009 </r>
       <r>    -7.9295     3.8215   120.0487 </r>
       <r>    -7.8296    22.1726   122.5494 </r>
       <r>    -7.7296    44.8850   127.5194 </r>
       <r>    -7.6297     0.0000   128.0000 </r>
       <r>    -7.5297     0.0000   128.0000 </r>
       <r>    -7.4298     0.0010   128.0001 </r>
       <r>    -7.3298    35.3142   131.5295 </r>
       <r>    -7.2299    39.0186   135.9999 </r>
       <r>    -7.1299     0.0000   136.0000 </r>
       <r>    -7.0300     0.0000   136.0000 </r>
       <r>    -6.9301     0.0000   136.0000 </r>
       <r>    -6.8301     0.0000   136.0000 </r>
       <r>    -6.7302     0.0000   136.0000 </r>
       <r>    -6.6302     0.0000   136.0000 </r>
       <r>    -6.5303     0.0000   136.0000 </r>
       <r>    -6.4303     0.0000   136.0000 </r>
       <r>    -6.3304     0.0000   136.0000 </r>
       <r>    -6.2304     0.0000   136.0000 </r>
       <r>    -6.1305     0.0000   136.0000 </r>
       <r>    -6.0306     0.0000   136.0000 </r>
       <r>    -5.9306    14.7508   137.4743 </r>
       <r>    -5.8307    15.4497   139.9110 </r>
       <r>    -5.7307    13.6095   141.4603 </r>
       <r>    -5.6308    26.2529   144.3906 </r>
       <r>    -5.5308    35.3490   150.0000 </r>
       <r>    -5.4309    27.9835   152.7968 </r>
       <r>    -5.3309    12.9983   156.0000 </r>
       <r>    -5.2310     0.0000   156.0000 </r>
       <r>    -5.1311     0.0000   156.0000 </r>
       <r>    -5.0311     0.0000   156.0000 </r>
       <r>    -4.9312     0.0000   156.0000 </r>
       <r>    -4.8312     0.0000   156.0000 </r>
       <r>    -4.7313     0.0000   156.0000 </r>
       <r>    -4.6313     0.0000   156.0000 </r>
       <r>    -4.5314     0.0000   156.0000 </r>
       <r>    -4.4314     0.0000   156.0000 </r>
       <r>    -4.3315     0.0000   156.0000 </r>
       <r>    -4.2316     0.0000   156.0000 </r>
       <r>    -4.1316     0.0000   156.0000 </r>
       <r>    -4.0317     0.0000   156.0000 </r>
       <r>    -3.9317     0.0000   156.0000 </r>
       <r>    -3.8318     0.0000   156.0000 </r>
       <r>    -3.7318     0.0000   156.0000 </r>
       <r>    -3.6319     0.0000   156.0000 </r>
       <r>    -3.5320     0.0000   156.0000 </r>
       <r>    -3.4320     0.0000   156.0000 </r>
       <r>    -3.3321     0.0000   156.0000 </r>
       <r>    -3.2321     0.0000   156.0000 </r>
       <r>    -3.1322     0.0000   156.0000 </r>
       <r>    -3.0322     0.0000   156.0000 </r>
       <r>    -2.9323     0.0000   156.0000 </r>
       <r>    -2.8323     0.0000   156.0000 </r>
       <r>    -2.7324     0.0000   156.0000 </r>
       <r>    -2.6325     0.0000   156.0000 </r>
       <r>    -2.5325     0.0000   156.0000 </r>
       <r>    -2.4326     0.0000   156.0000 </r>
       <r>    -2.3326     0.0000   156.0000 </r>
       <r>    -2.2327     0.0000   156.0000 </r>
       <r>    -2.1327     0.0000   156.0000 </r>
       <r>    -2.0328     0.0000   156.0000 </r>
       <r>    -1.9328     6.0284   156.6025 </r>
       <r>    -1.8329    26.5853   160.0240 </r>
       <r>    -1.7330    35.0055   163.9995 </r>
       <r>    -1.6330     0.0000   164.0000 </r>
       <r>    -1.5331     0.0000   164.0000 </r>
       <r>    -1.4331     0.0000   164.0000 </r>
       <r>    -1.3332     0.0000   164.0000 </r>
       <r>    -1.2332     0.0000   164.0000 </r>
       <r>    -1.1333     0.0000   164.0000 </r>
       <r>    -1.0333     0.0000   164.0000 </r>
       <r>    -0.9334     4.3197   164.4317 </r>
       <r>    -0.8335     5.5088   166.8840 </r>
       <r>    -0.7335     9.8118   167.9807 </r>
       <r>    -0.6336    21.4429   170.3098 </r>
       <r>    -0.5336    42.2699   175.4582 </r>
       <r>    -0.4337     3.6680   176.0000 </r>
       <r>    -0.3337     0.0000   176.0000 </r>
       <r>    -0.2338     0.0000   176.0000 </r>
       <r>    -0.1338     0.0000   176.0000 </r>
       <r>    -0.0339     7.5104   176.7506 </r>
       <r>     0.0660    11.0818   177.9742 </r>
       <r>     0.1660    12.2339   179.2227 </r>
       <r>     0.2659     2.9997   180.0000 </r>
       <r>     0.3659    14.6900   181.4682 </r>
       <r>     0.4658     7.9794   182.3642 </r>
       <r>     0.5658     3.7464   183.2411 </r>
       <r>     0.6657     7.1067   184.3103 </r>
       <r>     0.7657    12.9829   185.7643 </r>
       <r>     0.8656    15.6718   188.5330 </r>
       <r>     0.9655    17.5465   190.5204 </r>
       <r>     1.0655    19.5093   193.4833 </r>
       <r>     1.1654    24.3487   196.2336 </r>
       <r>     1.2654    20.6737   198.7997 </r>
       <r>     1.3653    15.6708   200.7329 </r>
       <r>     1.4653    20.8866   203.4542 </r>
       <r>     1.5652    21.3359   206.0992 </r>
       <r>     1.6651    34.5561   210.2205 </r>
       <r>     1.7651    24.5090   213.6831 </r>
       <r>     1.8650    33.0968   217.7413 </r>
       <r>     1.9650    29.6217   221.7940 </r>
       <r>     2.0649    13.8373   223.8497 </r>
       <r>     2.1649     0.6670   224.0000 </r>
       <r>     2.2648     0.0000   224.0000 </r>
       <r>     2.3648     0.0000   224.0000 </r>
       <r>     2.4647     0.0000   224.0000 </r>
       <r>     2.5646     0.0000   224.0000 </r>
       <r>     2.6646     0.0000   224.0000 </r>
       <r>     2.7645     0.0000   224.0000 </r>
       <r>     2.8645     0.0000   224.0000 </r>
       <r>     2.9644     0.0000   224.0000 </r>
       <r>     3.0644     0.0000   224.0000 </r>
       <r>     3.1643     0.0000   224.0000 </r>
       <r>     3.2643     0.0000   224.0000 </r>
       <r>     3.3642     0.0000   224.0000 </r>
       <r>     3.4641     0.0000   224.0000 </r>
      </set>
     </set>
    </array>
   </total>
  </dos>
 </calculation>
 <structure name="finalpos" >
  <crystal>
   <varray name="basis" >
    <v>      14.53420433       0.00000000       0.00000000 </v>
    <v>      -7.26710216      12.58699017       0.00000000 </v>
    <v>       0.00000000       0.00000000      20.00000000 </v>
   </varray>
   <i name="volume">   3658.83773964 </i>
   <varray name="rec_basis" >
    <v>       0.06880322       0.03972356       0.00000000 </v>
    <v>       0.00000000       0.07944711       0.00000000 </v>
    <v>       0.00000000       0.00000000       0.05000000 </v>
   </varray>
  </crystal>
  <varray name="positions" >
   <v>       0.61190014       0.22380028       0.48808033 </v>
   <v>       0.61190014       0.38809986       0.48808033 </v>
   <v>       0.77619972       0.38809986       0.48808033 </v>
   <v>       0.05473487       0.10946974       0.48611663 </v>
   <v>       0.05473487       0.94526513       0.48611663 </v>
   <v>       0.89053026       0.94526513       0.48611663 </v>
   <v>       0.56268507       0.28134254       0.48813243 </v>
   <v>       0.44423467       0.22211733       0.48800864 </v>
   <v>       0.38923485       0.19461743       0.42727445 </v>
   <v>       0.38786711       0.19393356       0.54820336 </v>
   <v>       0.71865746       0.28134254       0.48813243 </v>
   <v>       0.71865746       0.43731493       0.48813243 </v>
   <v>       0.77788267       0.55576533       0.48800864 </v>
   <v>       0.77788267       0.22211733       0.48800864 </v>
   <v>       0.94798989       0.05201011       0.48625033 </v>
   <v>       0.10402022       0.05201011       0.48625033 </v>
   <v>       0.94798989       0.89597978       0.48625033 </v>
   <v>       0.80538257       0.61076515       0.42727445 </v>
   <v>       0.86092980       0.72185960       0.42512310 </v>
   <v>       0.88876982       0.77753963       0.48616232 </v>
   <v>       0.89007672       0.78015344       0.35936750 </v>
   <v>       0.80538257       0.19461743       0.42727445 </v>
   <v>       0.86092980       0.13907020       0.42512310 </v>
   <v>       0.88876982       0.11123018       0.48616232 </v>
   <v>       0.89007672       0.10992328       0.35936750 </v>
   <v>       0.27814040       0.13907020       0.42512310 </v>
   <v>       0.22246037       0.11123018       0.48616232 </v>
   <v>       0.21984656       0.10992328       0.35936750 </v>
   <v>       0.86144408       0.72288815       0.54698310 </v>
   <v>       0.80606644       0.61213289       0.54820336 </v>
   <v>       0.86144408       0.13855592       0.54698310 </v>
   <v>       0.80606644       0.19393356       0.54820336 </v>
   <v>       0.27711185       0.13855592       0.54698310 </v>
   <v>       0.43372554       0.21686277       0.38040523 </v>
   <v>       0.43014831       0.21507415       0.59580183 </v>
   <v>       0.78313723       0.56627446       0.38040523 </v>
   <v>       0.78313723       0.21686277       0.38040523 </v>
   <v>       0.78492585       0.56985169       0.59580183 </v>
   <v>       0.78492585       0.21507415       0.59580183 </v>
   <v>       0.86222152       0.72444303       0.31718045 </v>
   <v>       0.97672088       0.83154496       0.35472392 </v>
   <v>       0.85482409       0.83154496       0.35472392 </v>
   <v>       0.86222152       0.13777848       0.31718045 </v>
   <v>       0.85482409       0.02327912       0.35472392 </v>
   <v>       0.97672088       0.14517591       0.35472392 </v>
   <v>       0.27555697       0.13777848       0.31718045 </v>
   <v>       0.16845504       0.14517591       0.35472392 </v>
   <v>       0.16845504       0.02327912       0.35472392 </v>
   <v>       0.88367612       0.76735225       0.59381604 </v>
   <v>       0.88367612       0.11632388       0.59381604 </v>
   <v>       0.23264775       0.11632388       0.59381604 </v>
  </varray>
 </structure>
</modeling>
