<?xml version="1.0" encoding="ISO-8859-1"?>
<modeling>
 <generator>
  <i name="program" type="string">vasp </i>
  <i name="version" type="string">5.4.4.18Apr17-6-g9f103f2a35  </i>
  <i name="subversion" type="string">(build Jun 07 2020 16:50:00) complex            parallel </i>
  <i name="platform" type="string">LinuxIFC </i>
  <i name="date" type="string">2023 02 14 </i>
  <i name="time" type="string">18:06:54 </i>
 </generator>
 <incar>
  <i type="string" name="SYSTEM">Simulation for cell shape cell volume r</i>
  <i type="int" name="ISTART">     1</i>
  <i type="string" name="PREC">high</i>
  <i type="string" name="ALGO">48</i>
  <i type="int" name="ICHARG">    11</i>
  <i type="int" name="NELM">   200</i>
  <i type="int" name="IBRION">    -1</i>
  <i name="EDIFF">      0.00001000</i>
  <i name="EDIFFG">     -0.01000000</i>
  <i type="int" name="NSW">     0</i>
  <i type="int" name="ISIF">     2</i>
  <i name="ENCUT">    500.00000000</i>
  <i name="POTIM">      0.30000000</i>
  <i type="string" name="LREAL">A</i>
  <i type="int" name="ISMEAR">     0</i>
  <i name="SIGMA">      0.01000000</i>
  <i type="int" name="NWRITE">     0</i>
  <i type="logical" name="LWAVE"> F  </i>
  <i type="logical" name="LCHARG"> F  </i>
  <v type="int" name="KPOINT_BSE">    -1     0     0     0</v>
  <i type="int" name="NELM">   200</i>
  <i type="string" name="GGA">PE</i>
 </incar>
 <structure name="primitive_cell" >
  <crystal>
   <varray name="basis" >
    <v>      34.00460635       0.00590042       0.00000000 </v>
    <v>     -16.98669735      29.43629397       0.00000000 </v>
    <v>       0.00000000       0.00000000      20.00000000 </v>
   </varray>
   <i name="volume">  20021.39634882 </i>
   <varray name="rec_basis" >
    <v>       0.02940484       0.01696854       0.00000000 </v>
    <v>      -0.00000589       0.03396827       0.00000000 </v>
    <v>       0.00000000       0.00000000       0.05000000 </v>
   </varray>
  </crystal>
  <varray name="positions" >
   <v>      -0.15654917       0.15639245       0.43648709 </v>
   <v>      -0.16569788       0.16632977       0.38949262 </v>
   <v>      -0.13399418       0.13408769       0.43109737 </v>
   <v>      -0.16944378       0.16795715       0.49789361 </v>
   <v>      -0.12233496       0.12146117       0.48861136 </v>
   <v>      -0.15748301       0.15499225      -0.44345478 </v>
   <v>      -0.19484961       0.19306897       0.49725085 </v>
   <v>      -0.13335235       0.13128682      -0.44724428 </v>
   <v>      -0.17114185       0.24073940       0.49544528 </v>
   <v>      -0.24250845       0.16903033       0.49639930 </v>
   <v>      -0.13410191       0.25919568       0.49623553 </v>
   <v>      -0.16601548       0.16252016      -0.39428421 </v>
   <v>      -0.26069314       0.13197768       0.49786049 </v>
   <v>      -0.09783053       0.09703620       0.48837693 </v>
   <v>      -0.12182297       0.11909557      -0.38713226 </v>
   <v>      -0.08532639       0.08552020       0.43064141 </v>
   <v>      -0.19485744       0.26448823       0.49166061 </v>
   <v>      -0.26659191       0.19240249       0.49241394 </v>
   <v>      -0.08778595       0.08593330      -0.44770003 </v>
   <v>      -0.09988166       0.09726209      -0.38733159 </v>
   <v>      -0.24239683       0.23996009       0.48973258 </v>
   <v>      -0.06291853       0.06303619       0.43548888 </v>
   <v>      -0.17326584       0.31484272       0.48953639 </v>
   <v>      -0.31696037       0.17044764       0.49053778 </v>
   <v>      -0.06398462       0.06188818      -0.44446170 </v>
   <v>      -0.17696023       0.32040779       0.38178411 </v>
   <v>      -0.32263264       0.17386700       0.38276183 </v>
   <v>      -0.05308260       0.05405710       0.38826021 </v>
   <v>      -0.26102255       0.25834549       0.48657021 </v>
   <v>      -0.05115275       0.05005882       0.49661278 </v>
   <v>      -0.16971262       0.33741487       0.43022423 </v>
   <v>      -0.33960788       0.16665930       0.43122090 </v>
   <v>      -0.16157208       0.32449509      -0.40318681 </v>
   <v>      -0.32658275       0.15869593      -0.40218081 </v>
   <v>      -0.16167084       0.34077503      -0.45038572 </v>
   <v>      -0.34287625       0.15877192      -0.44937266 </v>
   <v>      -0.05629289       0.05328096      -0.39545835 </v>
   <v>      -0.15959305       0.38297567       0.43264939 </v>
   <v>      -0.38518116       0.15640839       0.43365461 </v>
   <v>      -0.02599809       0.02470177       0.49612728 </v>
   <v>      -0.15242311       0.38350200      -0.44633692 </v>
   <v>      -0.38561639       0.14941966      -0.44531056 </v>
   <v>       0.04015760       0.08524974       0.49542532 </v>
   <v>      -0.08669689      -0.04134809       0.49728486 </v>
   <v>      -0.15369307       0.40394375       0.49620223 </v>
   <v>      -0.40608495       0.15062882       0.49721802 </v>
   <v>      -0.15943912       0.40332993       0.37225366 </v>
   <v>      -0.40555406       0.15613068       0.37321102 </v>
   <v>       0.02156308       0.04818328       0.49536234 </v>
   <v>      -0.04965114      -0.02289038       0.49643102 </v>
   <v>      -0.15944128       0.44123683       0.37225829 </v>
   <v>      -0.44336627       0.15629084       0.37314093 </v>
   <v>      -0.15371357       0.44633827       0.49620775 </v>
   <v>      -0.44839686       0.15077910       0.49716251 </v>
   <v>       0.04546852       0.02449592       0.49516176 </v>
   <v>      -0.02616676      -0.04699943       0.49593669 </v>
   <v>      -0.15961253       0.46142051       0.43266381 </v>
   <v>      -0.46343369       0.15667769       0.43357003 </v>
   <v>       0.02139408      -0.02309287       0.49503699 </v>
   <v>      -0.15247757       0.46801849      -0.44632499 </v>
   <v>      -0.47003226       0.14970830      -0.44541180 </v>
   <v>       0.09594662       0.04962284       0.49573642 </v>
   <v>      -0.05148376      -0.09751065       0.49649797 </v>
   <v>      -0.05311163      -0.10355367       0.38817020 </v>
   <v>       0.10228063       0.05162072       0.38744749 </v>
   <v>       0.12090850       0.06141163       0.43482759 </v>
   <v>      -0.06310359      -0.12231550       0.43543597 </v>
   <v>       0.10384137       0.05455341      -0.39626080 </v>
   <v>      -0.05702895      -0.10570569      -0.39557501 </v>
   <v>       0.12034495       0.06231957      -0.44510750 </v>
   <v>      -0.06461043      -0.12209578      -0.44450944 </v>
   <v>       0.03985685      -0.04170025       0.49493565 </v>
   <v>      -0.16977453       0.49683601       0.43025936 </v>
   <v>      -0.49869763       0.16703345       0.43107894 </v>
   <v>      -0.16176600      -0.49852791      -0.45034459 </v>
   <v>       0.49654652       0.15902379      -0.44954721 </v>
   <v>      -0.17702477      -0.49338642       0.38182814 </v>
   <v>       0.49164471       0.17434777       0.38259572 </v>
   <v>       0.16580174       0.08378009       0.43036713 </v>
   <v>      -0.08556988      -0.16721605       0.43069534 </v>
   <v>      -0.17337283      -0.48418936       0.48958974 </v>
   <v>       0.48228980       0.17067462       0.49034446 </v>
   <v>       0.16816205       0.08604312      -0.44792338 </v>
   <v>      -0.08852836      -0.16994677      -0.44763514 </v>
   <v>      -0.16168277      -0.48216729      -0.40313994 </v>
   <v>       0.48015463       0.15893783      -0.40238001 </v>
   <v>       0.18953372       0.09619526       0.48834624 </v>
   <v>      -0.09830556      -0.19114629       0.48849475 </v>
   <v>      -0.26112600       0.48435564       0.48673064 </v>
   <v>      -0.48624923       0.25851937       0.48613285 </v>
   <v>      -0.10103797      -0.19334720      -0.38724996 </v>
   <v>       0.19134096       0.09792792      -0.38737507 </v>
   <v>      -0.19505837      -0.45550888       0.49173312 </v>
   <v>       0.45366930       0.19243862       0.49232794 </v>
   <v>       0.23841190       0.12072163       0.48903969 </v>
   <v>      -0.12281833      -0.24006666       0.48882275 </v>
   <v>      -0.24260105      -0.47863284       0.48983091 </v>
   <v>       0.47677949       0.23999433       0.48967745 </v>
   <v>      -0.12307852      -0.23712311      -0.38697598 </v>
   <v>       0.23509692       0.11965559      -0.38674579 </v>
   <v>       0.26282911       0.13279377       0.43169381 </v>
   <v>      -0.13413541      -0.26436156       0.43136084 </v>
   <v>      -0.13421225      -0.26088895      -0.44705244 </v>
   <v>       0.25904009       0.13131838      -0.44667269 </v>
   <v>      -0.17146687      -0.40804856       0.49553950 </v>
   <v>      -0.13442285      -0.38937253       0.49630466 </v>
   <v>       0.40624385       0.16889545       0.49668461 </v>
   <v>       0.38755158       0.13184035       0.49798278 </v>
   <v>      -0.26693990      -0.45541104       0.49246012 </v>
   <v>       0.45357798       0.26435566       0.49224413 </v>
   <v>       0.49123814       0.32054722       0.38248325 </v>
   <v>      -0.32307787      -0.49292132       0.38275532 </v>
   <v>      -0.49901167       0.33746330       0.43098960 </v>
   <v>      -0.33998543       0.49714241       0.43124849 </v>
   <v>      -0.31731021      -0.48404305       0.49057553 </v>
   <v>       0.48210103       0.31472810       0.49024741 </v>
   <v>      -0.46373583       0.38307424       0.43354066 </v>
   <v>      -0.38549211       0.46165348       0.43367180 </v>
   <v>      -0.44370555       0.40365506       0.37313996 </v>
   <v>      -0.40590890       0.44163090       0.37320493 </v>
   <v>       0.30763672       0.15520438       0.43733378 </v>
   <v>      -0.15672212      -0.30921560       0.43674292 </v>
   <v>      -0.44861747       0.40386280       0.49718421 </v>
   <v>      -0.40631245       0.44631776       0.49724396 </v>
   <v>      -0.15831940      -0.30872738      -0.44323956 </v>
   <v>       0.30684878       0.15522365      -0.44259477 </v>
   <v>      -0.34313948      -0.49862067      -0.44928140 </v>
   <v>       0.49640313       0.34052550      -0.44955450 </v>
   <v>      -0.38580558       0.46782926      -0.44524188 </v>
   <v>      -0.47017445       0.38323534      -0.44537085 </v>
   <v>      -0.32684247      -0.48239604      -0.40202819 </v>
   <v>       0.48004396       0.32414738      -0.40239637 </v>
   <v>       0.32683118       0.16470331       0.39044333 </v>
   <v>      -0.16557995      -0.32827961       0.38974520 </v>
   <v>      -0.19530144      -0.38420521       0.49741926 </v>
   <v>       0.38242407       0.19276278       0.49821904 </v>
   <v>       0.33192355       0.16751053       0.49888698 </v>
   <v>      -0.16996684      -0.33367874       0.49813197 </v>
   <v>      -0.24296974      -0.40794821       0.49647583 </v>
   <v>       0.40616740       0.24044043       0.49666317 </v>
   <v>      -0.16702734      -0.32474040      -0.39404123 </v>
   <v>       0.32274893       0.16339685      -0.39331503 </v>
   <v>       0.38743804       0.25876737       0.49795933 </v>
   <v>      -0.26124515      -0.38916827       0.49788504 </v>
  </varray>
 </structure>
 <varray name="primitive_index" >
  <v type="int" >        1 </v>
  <v type="int" >      125 </v>
  <v type="int" >       85 </v>
  <v type="int" >       57 </v>
  <v type="int" >        2 </v>
  <v type="int" >       61 </v>
  <v type="int" >       43 </v>
  <v type="int" >       60 </v>
  <v type="int" >       44 </v>
  <v type="int" >       42 </v>
  <v type="int" >      119 </v>
  <v type="int" >      135 </v>
  <v type="int" >      118 </v>
  <v type="int" >        3 </v>
  <v type="int" >       98 </v>
  <v type="int" >       86 </v>
  <v type="int" >       39 </v>
  <v type="int" >       41 </v>
  <v type="int" >       63 </v>
  <v type="int" >       97 </v>
  <v type="int" >       40 </v>
  <v type="int" >        4 </v>
  <v type="int" >       15 </v>
  <v type="int" >       30 </v>
  <v type="int" >       62 </v>
  <v type="int" >      130 </v>
  <v type="int" >      133 </v>
  <v type="int" >      111 </v>
  <v type="int" >      120 </v>
  <v type="int" >       34 </v>
  <v type="int" >       16 </v>
  <v type="int" >       24 </v>
  <v type="int" >      140 </v>
  <v type="int" >      143 </v>
  <v type="int" >       76 </v>
  <v type="int" >       81 </v>
  <v type="int" >      113 </v>
  <v type="int" >       17 </v>
  <v type="int" >       23 </v>
  <v type="int" >       31 </v>
  <v type="int" >      104 </v>
  <v type="int" >      107 </v>
  <v type="int" >      116 </v>
  <v type="int" >      117 </v>
  <v type="int" >       75 </v>
  <v type="int" >       82 </v>
  <v type="int" >       91 </v>
  <v type="int" >       96 </v>
  <v type="int" >       38 </v>
  <v type="int" >       33 </v>
  <v type="int" >       92 </v>
  <v type="int" >       95 </v>
  <v type="int" >       74 </v>
  <v type="int" >       83 </v>
  <v type="int" >       37 </v>
  <v type="int" >       32 </v>
  <v type="int" >       13 </v>
  <v type="int" >       27 </v>
  <v type="int" >       36 </v>
  <v type="int" >      103 </v>
  <v type="int" >      108 </v>
  <v type="int" >       70 </v>
  <v type="int" >       35 </v>
  <v type="int" >      112 </v>
  <v type="int" >      128 </v>
  <v type="int" >       12 </v>
  <v type="int" >        8 </v>
  <v type="int" >      138 </v>
  <v type="int" >      114 </v>
  <v type="int" >       71 </v>
  <v type="int" >       66 </v>
  <v type="int" >      115 </v>
  <v type="int" >       14 </v>
  <v type="int" >       26 </v>
  <v type="int" >       73 </v>
  <v type="int" >       84 </v>
  <v type="int" >      129 </v>
  <v type="int" >      134 </v>
  <v type="int" >       90 </v>
  <v type="int" >       88 </v>
  <v type="int" >       28 </v>
  <v type="int" >       25 </v>
  <v type="int" >       72 </v>
  <v type="int" >       67 </v>
  <v type="int" >      139 </v>
  <v type="int" >      144 </v>
  <v type="int" >       11 </v>
  <v type="int" >        7 </v>
  <v type="int" >      109 </v>
  <v type="int" >      110 </v>
  <v type="int" >       99 </v>
  <v type="int" >      101 </v>
  <v type="int" >       47 </v>
  <v type="int" >       51 </v>
  <v type="int" >       10 </v>
  <v type="int" >        6 </v>
  <v type="int" >       46 </v>
  <v type="int" >       52 </v>
  <v type="int" >      100 </v>
  <v type="int" >      102 </v>
  <v type="int" >       89 </v>
  <v type="int" >       87 </v>
  <v type="int" >       64 </v>
  <v type="int" >       68 </v>
  <v type="int" >       48 </v>
  <v type="int" >      121 </v>
  <v type="int" >       56 </v>
  <v type="int" >      124 </v>
  <v type="int" >       45 </v>
  <v type="int" >       53 </v>
  <v type="int" >      131 </v>
  <v type="int" >      132 </v>
  <v type="int" >       19 </v>
  <v type="int" >       21 </v>
  <v type="int" >       20 </v>
  <v type="int" >       29 </v>
  <v type="int" >       18 </v>
  <v type="int" >       22 </v>
  <v type="int" >       94 </v>
  <v type="int" >       93 </v>
  <v type="int" >        9 </v>
  <v type="int" >        5 </v>
  <v type="int" >       78 </v>
  <v type="int" >       79 </v>
  <v type="int" >       65 </v>
  <v type="int" >       69 </v>
  <v type="int" >       80 </v>
  <v type="int" >       77 </v>
  <v type="int" >      106 </v>
  <v type="int" >      105 </v>
  <v type="int" >      142 </v>
  <v type="int" >      141 </v>
  <v type="int" >      127 </v>
  <v type="int" >      126 </v>
  <v type="int" >       49 </v>
  <v type="int" >       55 </v>
  <v type="int" >       59 </v>
  <v type="int" >       58 </v>
  <v type="int" >       50 </v>
  <v type="int" >       54 </v>
  <v type="int" >      136 </v>
  <v type="int" >      137 </v>
  <v type="int" >      123 </v>
  <v type="int" >      122 </v>
 </varray>
 <kpoints>
  <generation param="listgenerated">
   <i name="divisions" type="int">      20 </i>
   <v>       0.00000000       0.00000000       0.00000000 </v>
   <v>       0.50000000       0.00000000       0.00000000 </v>
   <v>       0.33333333       0.33333333       0.00000000 </v>
   <v>       0.00000000       0.00000000       0.00000000 </v>
  </generation>
  <varray name="kpointlist" >
   <v>       0.00000000       0.00000000       0.00000000 </v>
   <v>       0.02631579       0.00000000       0.00000000 </v>
   <v>       0.05263158       0.00000000       0.00000000 </v>
   <v>       0.07894737       0.00000000       0.00000000 </v>
   <v>       0.10526316       0.00000000       0.00000000 </v>
   <v>       0.13157895       0.00000000       0.00000000 </v>
   <v>       0.15789474       0.00000000       0.00000000 </v>
   <v>       0.18421053       0.00000000       0.00000000 </v>
   <v>       0.21052632       0.00000000       0.00000000 </v>
   <v>       0.23684211       0.00000000       0.00000000 </v>
   <v>       0.26315789       0.00000000       0.00000000 </v>
   <v>       0.28947368       0.00000000       0.00000000 </v>
   <v>       0.31578947       0.00000000       0.00000000 </v>
   <v>       0.34210526       0.00000000       0.00000000 </v>
   <v>       0.36842105       0.00000000       0.00000000 </v>
   <v>       0.39473684       0.00000000       0.00000000 </v>
   <v>       0.42105263       0.00000000       0.00000000 </v>
   <v>       0.44736842       0.00000000       0.00000000 </v>
   <v>       0.47368421       0.00000000       0.00000000 </v>
   <v>       0.50000000       0.00000000       0.00000000 </v>
   <v>       0.50000000       0.00000000       0.00000000 </v>
   <v>       0.49122807       0.01754386       0.00000000 </v>
   <v>       0.48245614       0.03508772       0.00000000 </v>
   <v>       0.47368421       0.05263158       0.00000000 </v>
   <v>       0.46491228       0.07017544       0.00000000 </v>
   <v>       0.45614035       0.08771930       0.00000000 </v>
   <v>       0.44736842       0.10526316       0.00000000 </v>
   <v>       0.43859649       0.12280702       0.00000000 </v>
   <v>       0.42982456       0.14035088       0.00000000 </v>
   <v>       0.42105263       0.15789474       0.00000000 </v>
   <v>       0.41228070       0.17543860       0.00000000 </v>
   <v>       0.40350877       0.19298246       0.00000000 </v>
   <v>       0.39473684       0.21052632       0.00000000 </v>
   <v>       0.38596491       0.22807018       0.00000000 </v>
   <v>       0.37719298       0.24561404       0.00000000 </v>
   <v>       0.36842105       0.26315789       0.00000000 </v>
   <v>       0.35964912       0.28070175       0.00000000 </v>
   <v>       0.35087719       0.29824561       0.00000000 </v>
   <v>       0.34210526       0.31578947       0.00000000 </v>
   <v>       0.33333333       0.33333333       0.00000000 </v>
   <v>       0.33333333       0.33333333       0.00000000 </v>
   <v>       0.31578947       0.31578947       0.00000000 </v>
   <v>       0.29824561       0.29824561       0.00000000 </v>
   <v>       0.28070175       0.28070175       0.00000000 </v>
   <v>       0.26315789       0.26315789       0.00000000 </v>
   <v>       0.24561404       0.24561404       0.00000000 </v>
   <v>       0.22807018       0.22807018       0.00000000 </v>
   <v>       0.21052632       0.21052632       0.00000000 </v>
   <v>       0.19298246       0.19298246       0.00000000 </v>
   <v>       0.17543860       0.17543860       0.00000000 </v>
   <v>       0.15789474       0.15789474       0.00000000 </v>
   <v>       0.14035088       0.14035088       0.00000000 </v>
   <v>       0.12280702       0.12280702       0.00000000 </v>
   <v>       0.10526316       0.10526316       0.00000000 </v>
   <v>       0.08771930       0.08771930       0.00000000 </v>
   <v>       0.07017544       0.07017544       0.00000000 </v>
   <v>       0.05263158       0.05263158       0.00000000 </v>
   <v>       0.03508772       0.03508772       0.00000000 </v>
   <v>       0.01754386       0.01754386       0.00000000 </v>
   <v>       0.00000000       0.00000000       0.00000000 </v>
  </varray>
  <varray name="weights" >
   <v>       0.01666667 </v>
   <v>       0.01666667 </v>
   <v>       0.01666667 </v>
   <v>       0.01666667 </v>
   <v>       0.01666667 </v>
   <v>       0.01666667 </v>
   <v>       0.01666667 </v>
   <v>       0.01666667 </v>
   <v>       0.01666667 </v>
   <v>       0.01666667 </v>
   <v>       0.01666667 </v>
   <v>       0.01666667 </v>
   <v>       0.01666667 </v>
   <v>       0.01666667 </v>
   <v>       0.01666667 </v>
   <v>       0.01666667 </v>
   <v>       0.01666667 </v>
   <v>       0.01666667 </v>
   <v>       0.01666667 </v>
   <v>       0.01666667 </v>
   <v>       0.01666667 </v>
   <v>       0.01666667 </v>
   <v>       0.01666667 </v>
   <v>       0.01666667 </v>
   <v>       0.01666667 </v>
   <v>       0.01666667 </v>
   <v>       0.01666667 </v>
   <v>       0.01666667 </v>
   <v>       0.01666667 </v>
   <v>       0.01666667 </v>
   <v>       0.01666667 </v>
   <v>       0.01666667 </v>
   <v>       0.01666667 </v>
   <v>       0.01666667 </v>
   <v>       0.01666667 </v>
   <v>       0.01666667 </v>
   <v>       0.01666667 </v>
   <v>       0.01666667 </v>
   <v>       0.01666667 </v>
   <v>       0.01666667 </v>
   <v>       0.01666667 </v>
   <v>       0.01666667 </v>
   <v>       0.01666667 </v>
   <v>       0.01666667 </v>
   <v>       0.01666667 </v>
   <v>       0.01666667 </v>
   <v>       0.01666667 </v>
   <v>       0.01666667 </v>
   <v>       0.01666667 </v>
   <v>       0.01666667 </v>
   <v>       0.01666667 </v>
   <v>       0.01666667 </v>
   <v>       0.01666667 </v>
   <v>       0.01666667 </v>
   <v>       0.01666667 </v>
   <v>       0.01666667 </v>
   <v>       0.01666667 </v>
   <v>       0.01666667 </v>
   <v>       0.01666667 </v>
   <v>       0.01666667 </v>
  </varray>
 </kpoints>
 <parameters>
  <separator name="general" >
   <i type="string" name="SYSTEM">Simulation for cell shape cell volume r</i>
   <i type="logical" name="LCOMPAT"> F  </i>
  </separator>
  <separator name="electronic" >
   <i type="string" name="PREC">high</i>
   <i name="ENMAX">    500.00000000</i>
   <i name="ENAUG">    644.87300000</i>
   <i name="EDIFF">      0.00001000</i>
   <i type="int" name="IALGO">    38</i>
   <i type="int" name="IWAVPR">    10</i>
   <i type="int" name="NBANDS">   320</i>
   <i name="NELECT">    492.00000000</i>
   <i type="int" name="TURBO">     0</i>
   <i type="int" name="IRESTART">     0</i>
   <i type="int" name="NREBOOT">     0</i>
   <i type="int" name="NMIN">     0</i>
   <i name="EREF">      0.00000000</i>
   <separator name="electronic smearing" >
    <i type="int" name="ISMEAR">     0</i>
    <i name="SIGMA">      0.01000000</i>
    <i name="KSPACING">      0.50000000</i>
    <i type="logical" name="KGAMMA"> T  </i>
   </separator>
   <separator name="electronic projectors" >
    <i type="logical" name="LREAL"> T  </i>
    <v name="ROPT">     -0.00040000     -0.00040000     -0.00040000</v>
    <i type="int" name="LMAXPAW">  -100</i>
    <i type="int" name="LMAXMIX">     2</i>
    <i type="logical" name="NLSPLINE"> F  </i>
   </separator>
   <separator name="electronic startup" >
    <i type="int" name="ISTART">     1</i>
    <i type="int" name="ICHARG">    11</i>
    <i type="int" name="INIWAV">     1</i>
   </separator>
   <separator name="electronic spin" >
    <i type="int" name="ISPIN">     1</i>
    <i type="logical" name="LNONCOLLINEAR"> F  </i>
    <v name="MAGMOM">      1.00000000      1.00000000      1.00000000      1.00000000      1.00000000      1.00000000      1.00000000      1.00000000      1.00000000      1.00000000      1.00000000      1.00000000      1.00000000      1.00000000      1.00000000      1.00000000      1.00000000      1.00000000      1.00000000      1.00000000
      1.00000000      1.00000000      1.00000000      1.00000000      1.00000000      1.00000000      1.00000000      1.00000000      1.00000000      1.00000000      1.00000000      1.00000000      1.00000000      1.00000000      1.00000000      1.00000000      1.00000000      1.00000000      1.00000000      1.00000000
      1.00000000      1.00000000      1.00000000      1.00000000      1.00000000      1.00000000      1.00000000      1.00000000      1.00000000      1.00000000      1.00000000      1.00000000      1.00000000      1.00000000      1.00000000      1.00000000      1.00000000      1.00000000      1.00000000      1.00000000
      1.00000000      1.00000000      1.00000000      1.00000000      1.00000000      1.00000000      1.00000000      1.00000000      1.00000000      1.00000000      1.00000000      1.00000000      1.00000000      1.00000000      1.00000000      1.00000000      1.00000000      1.00000000      1.00000000      1.00000000
      1.00000000      1.00000000      1.00000000      1.00000000      1.00000000      1.00000000      1.00000000      1.00000000      1.00000000      1.00000000      1.00000000      1.00000000      1.00000000      1.00000000      1.00000000      1.00000000      1.00000000      1.00000000      1.00000000      1.00000000
      1.00000000      1.00000000      1.00000000      1.00000000      1.00000000      1.00000000      1.00000000      1.00000000      1.00000000      1.00000000      1.00000000      1.00000000      1.00000000      1.00000000      1.00000000      1.00000000      1.00000000      1.00000000      1.00000000      1.00000000
      1.00000000      1.00000000      1.00000000      1.00000000      1.00000000      1.00000000      1.00000000      1.00000000      1.00000000      1.00000000      1.00000000      1.00000000      1.00000000      1.00000000      1.00000000      1.00000000      1.00000000      1.00000000      1.00000000      1.00000000
      1.00000000      1.00000000      1.00000000      1.00000000</v>
    <i name="NUPDOWN">     -1.00000000</i>
    <i type="logical" name="LSORBIT"> F  </i>
    <v name="SAXIS">      0.00000000      0.00000000      1.00000000</v>
    <i type="logical" name="LSPIRAL"> F  </i>
    <v name="QSPIRAL">      0.00000000      0.00000000      0.00000000</v>
    <i type="logical" name="LZEROZ"> F  </i>
   </separator>
   <separator name="electronic exchange-correlation" >
    <i type="logical" name="LASPH"> F  </i>
    <i type="logical" name="LMETAGGA"> F  </i>
   </separator>
   <separator name="electronic convergence" >
    <i type="int" name="NELM">   200</i>
    <i type="int" name="NELMDL">     0</i>
    <i type="int" name="NELMIN">     2</i>
    <i name="ENINI">    500.00000000</i>
    <separator name="electronic convergence detail" >
     <i type="logical" name="LDIAG"> T  </i>
     <i type="logical" name="LSUBROT"> F  </i>
     <i name="WEIMIN">      0.00000000</i>
     <i name="EBREAK">      0.00000001</i>
     <i name="DEPER">      0.30000000</i>
     <i type="int" name="NRMM">     4</i>
     <i name="TIME">      0.40000000</i>
    </separator>
   </separator>
   <separator name="electronic mixer" >
    <i name="AMIX">      0.40000000</i>
    <i name="BMIX">      1.00000000</i>
    <i name="AMIN">      0.10000000</i>
    <i name="AMIX_MAG">      1.60000000</i>
    <i name="BMIX_MAG">      1.00000000</i>
    <separator name="electronic mixer details" >
     <i type="int" name="IMIX">     4</i>
     <i type="logical" name="MIXFIRST"> F  </i>
     <i type="int" name="MAXMIX">   -45</i>
     <i name="WC">    100.00000000</i>
     <i type="int" name="INIMIX">     1</i>
     <i type="int" name="MIXPRE">     1</i>
     <i type="int" name="MREMOVE">     5</i>
    </separator>
   </separator>
   <separator name="electronic dipolcorrection" >
    <i type="logical" name="LDIPOL"> F  </i>
    <i type="logical" name="LMONO"> F  </i>
    <i type="int" name="IDIPOL">     0</i>
    <i name="EPSILON">      1.00000000</i>
    <v name="DIPOL">   -100.00000000   -100.00000000   -100.00000000</v>
    <i name="EFIELD">      0.00000000</i>
   </separator>
  </separator>
  <separator name="grids" >
   <i type="int" name="NGX">   250</i>
   <i type="int" name="NGY">   250</i>
   <i type="int" name="NGZ">   150</i>
   <i type="int" name="NGXF">   378</i>
   <i type="int" name="NGYF">   378</i>
   <i type="int" name="NGZF">   224</i>
   <i type="logical" name="ADDGRID"> F  </i>
  </separator>
  <separator name="ionic" >
   <i type="int" name="NSW">     0</i>
   <i type="int" name="IBRION">    -1</i>
   <i type="int" name="MDALGO">     0</i>
   <i type="int" name="ISIF">     2</i>
   <i name="PSTRESS">      0.00000000</i>
   <i name="EDIFFG">     -0.01000000</i>
   <i type="int" name="NFREE">     0</i>
   <i name="POTIM">      0.30000000</i>
   <i name="SMASS">     -3.00000000</i>
   <i name="SCALEE">      1.00000000</i>
  </separator>
  <separator name="ionic md" >
   <i name="TEBEG">      0.00010000</i>
   <i name="TEEND">      0.00010000</i>
   <i type="int" name="NBLOCK">     1</i>
   <i type="int" name="KBLOCK">     1</i>
   <i type="int" name="NPACO">   256</i>
   <i name="APACO">     16.00000000</i>
  </separator>
  <separator name="symmetry" >
   <i type="int" name="ISYM">     2</i>
   <i name="SYMPREC">      0.00001000</i>
  </separator>
  <separator name="dos" >
   <i type="int" name="LORBIT">     0</i>
   <v name="RWIGS">     -1.00000000     -1.00000000     -1.00000000</v>
   <i type="int" name="NEDOS">   301</i>
   <i name="EMIN">     10.00000000</i>
   <i name="EMAX">    -10.00000000</i>
   <i name="EFERMI">      0.00000000</i>
  </separator>
  <separator name="writing" >
   <i type="int" name="NWRITE">     0</i>
   <i type="logical" name="LWAVE"> F  </i>
   <i type="logical" name="LDOWNSAMPLE"> F  </i>
   <i type="logical" name="LCHARG"> F  </i>
   <i type="logical" name="LPARD"> F  </i>
   <i type="logical" name="LVTOT"> F  </i>
   <i type="logical" name="LVHAR"> F  </i>
   <i type="logical" name="LELF"> F  </i>
   <i type="logical" name="LOPTICS"> F  </i>
   <v name="STM">      0.00000000      0.00000000      0.00000000      0.00000000      0.00000000      0.00000000      0.00000000</v>
  </separator>
  <separator name="performance" >
   <i type="int" name="NPAR">    16</i>
   <i type="int" name="NSIM">     4</i>
   <i type="int" name="NBLK">    -1</i>
   <i type="logical" name="LPLANE"> T  </i>
   <i type="logical" name="LSCALAPACK"> T  </i>
   <i type="logical" name="LSCAAWARE"> F  </i>
   <i type="logical" name="LSCALU"> F  </i>
   <i type="logical" name="LASYNC"> F  </i>
   <i type="logical" name="LORBITALREAL"> F  </i>
  </separator>
  <separator name="miscellaneous" >
   <i type="int" name="IDIOT">     3</i>
   <i type="int" name="ISPECIAL">     0</i>
   <i type="logical" name="LMUSIC"> F  </i>
   <v name="POMASS">     12.01100000     14.00100000      1.00000000</v>
   <v name="DARWINR">      0.00000000      0.00000000      0.00000000</v>
   <v name="DARWINV">      1.00000000      1.00000000      1.00000000</v>
   <i type="logical" name="LCORR"> T  </i>
  </separator>
  <i type="logical" name="GGA_COMPAT"> T  </i>
  <i type="logical" name="LBERRY"> F  </i>
  <i type="int" name="ICORELEVEL">     0</i>
  <i type="logical" name="LDAU"> F  </i>
  <i type="int" name="I_CONSTRAINED_M">     0</i>
  <separator name="electronic exchange-correlation" >
   <i type="string" name="GGA">PE</i>
   <i type="int" name="VOSKOWN">     0</i>
   <i type="logical" name="LHFCALC"> F  </i>
   <i type="string" name="PRECFOCK"></i>
   <i type="logical" name="LSYMGRAD"> F  </i>
   <i type="logical" name="LHFONE"> F  </i>
   <i type="logical" name="LRHFCALC"> F  </i>
   <i type="logical" name="LTHOMAS"> F  </i>
   <i type="logical" name="LMODELHF"> F  </i>
   <i name="ENCUT4O">     -1.00000000</i>
   <i type="int" name="EXXOEP">     0</i>
   <i type="int" name="FOURORBIT">     0</i>
   <i name="AEXX">      0.00000000</i>
   <i name="HFALPHA">      0.00000000</i>
   <i name="MCALPHA">      0.00000000</i>
   <i name="ALDAX">      1.00000000</i>
   <i name="AGGAX">      1.00000000</i>
   <i name="ALDAC">      1.00000000</i>
   <i name="AGGAC">      1.00000000</i>
   <i type="int" name="NKREDX">     1</i>
   <i type="int" name="NKREDY">     1</i>
   <i type="int" name="NKREDZ">     1</i>
   <i type="logical" name="SHIFTRED"> F  </i>
   <i type="logical" name="ODDONLY"> F  </i>
   <i type="logical" name="EVENONLY"> F  </i>
   <i type="int" name="LMAXFOCK">     0</i>
   <i type="int" name="NMAXFOCKAE">     0</i>
   <i type="logical" name="LFOCKAEDFT"> F  </i>
   <i name="HFSCREEN">      0.00000000</i>
   <i name="HFSCREENC">      0.00000000</i>
   <i type="int" name="NBANDSGWLOW">     0</i>
  </separator>
  <separator name="vdW DFT" >
   <i type="logical" name="LUSE_VDW"> F  </i>
   <i name="Zab_VDW">     -0.84910000</i>
   <i name="PARAM1">      0.12340000</i>
   <i name="PARAM2">      1.00000000</i>
   <i name="PARAM3">      0.00000000</i>
  </separator>
  <separator name="model GW" >
   <i type="int" name="MODEL_GW">     0</i>
   <i name="MODEL_EPS0">     83.42248479</i>
   <i name="MODEL_ALPHA">      1.00000000</i>
  </separator>
  <separator name="linear response parameters" >
   <i type="logical" name="LEPSILON"> F  </i>
   <i type="logical" name="LRPA"> F  </i>
   <i type="logical" name="LNABLA"> F  </i>
   <i type="logical" name="LVEL"> F  </i>
   <i type="int" name="KINTER">     0</i>
   <i name="CSHIFT">      0.10000000</i>
   <i name="OMEGAMAX">     -1.00000000</i>
   <i name="DEG_THRESHOLD">      0.00200000</i>
   <i name="RTIME">     -0.10000000</i>
   <i name="WPLASMAI">      0.00000000</i>
   <v name="DFIELD">      0.00000000      0.00000000      0.00000000</v>
   <v name="WPLASMA">      0.00000000      0.00000000      0.00000000      0.00000000      0.00000000      0.00000000      0.00000000      0.00000000      0.00000000</v>
  </separator>
  <separator name="orbital magnetization" >
   <i type="logical" name="NUCIND"> F  </i>
   <v name="MAGPOS">      0.00000000      0.00000000      0.00000000</v>
   <i type="logical" name="LNICSALL"> T  </i>
   <i type="logical" name="ORBITALMAG"> F  </i>
   <i type="logical" name="LMAGBLOCH"> F  </i>
   <i type="logical" name="LCHIMAG"> F  </i>
   <i type="logical" name="LGAUGE"> T  </i>
   <i type="int" name="MAGATOM">     0</i>
   <v name="MAGDIPOL">      0.00000000      0.00000000      0.00000000</v>
   <v name="AVECCONST">      0.00000000      0.00000000      0.00000000</v>
  </separator>
  <separator name="response functions" >
   <i type="logical" name="LADDER"> F  </i>
   <i type="logical" name="LRPAFORCE"> F  </i>
   <i type="logical" name="LFXC"> F  </i>
   <i type="logical" name="LHARTREE"> T  </i>
   <i type="int" name="IBSE">     0</i>
   <v type="int" name="KPOINT">    -1     0     0     0</v>
   <i type="logical" name="LTCTE"> F  </i>
   <i type="logical" name="LTETE"> F  </i>
   <i type="logical" name="LTRIPLET"> F  </i>
   <i type="logical" name="LFXCEPS"> F  </i>
   <i type="logical" name="LFXHEG"> F  </i>
   <i type="int" name="NATURALO">     2</i>
   <i type="logical" name="L2ORDER"> F  </i>
   <i type="logical" name="LMP2LT"> F  </i>
   <i type="logical" name="LUSEW"> F  </i>
   <i name="ENCUTGW">     -2.00000000</i>
   <i name="ENCUTGWSOFT">     -2.00000000</i>
   <i name="ENCUTLF">     -1.00000000</i>
   <i type="int" name="LMAXMP2">    -1</i>
   <i name="SCISSOR">      0.00000000</i>
   <i type="int" name="NOMEGA">     0</i>
   <i type="int" name="NOMEGAR">     0</i>
   <i type="int" name="NBANDSGW">    -1</i>
   <i type="int" name="NBANDSO">    -1</i>
   <i type="int" name="NBANDSV">    -1</i>
   <i type="int" name="NELM">   200</i>
   <i type="int" name="NELMHF">     1</i>
   <i type="int" name="DIM">     3</i>
   <i type="int" name="ANTIRES">     0</i>
   <i name="OMEGAMAX">    -30.00000000</i>
   <i name="OMEGAMIN">    -30.00000000</i>
   <i name="OMEGATL">   -200.00000000</i>
   <i type="int" name="OMEGAGRID">   140</i>
   <i name="CSHIFT">     -0.10000000</i>
   <i type="logical" name="SELFENERGY"> F  </i>
   <i type="logical" name="LSPECTRAL"> F  </i>
   <i type="logical" name="LSPECTRALGW"> F  </i>
   <i type="logical" name="LSINGLES"> F  </i>
   <i type="logical" name="LFERMIGW"> F  </i>
   <i type="logical" name="ODDONLYGW"> F  </i>
   <i type="logical" name="EVENONLYGW"> F  </i>
   <i type="int" name="NKREDLFX">     1</i>
   <i type="int" name="NKREDLFY">     1</i>
   <i type="int" name="NKREDLFZ">     1</i>
   <i type="int" name="MAXMEM">  2800</i>
   <i type="int" name="TELESCOPE">     0</i>
   <i type="int" name="TAUPAR">     1</i>
   <i type="int" name="OMEGAPAR">    -1</i>
   <i name="LAMBDA">      1.00000000</i>
  </separator>
  <separator name="External order field" >
   <i name="OFIELD_KAPPA">      0.00000000</i>
   <v name="OFIELD_K">      0.00000000      0.00000000      0.00000000</v>
   <i name="OFIELD_Q6_NEAR">      0.00000000</i>
   <i name="OFIELD_Q6_FAR">      0.00000000</i>
   <i name="OFIELD_A">      0.00000000</i>
  </separator>
  <separator name="solvation model" >
   <i type="logical" name="LSOL"> F  </i>
  </separator>
 </parameters>
 <atominfo>
  <atoms>     144 </atoms>
  <types>       3 </types>
  <array name="atoms" >
   <dimension dim="1">ion</dimension>
   <field type="string">element</field>
   <field type="int">atomtype</field>
   <set>
    <rc><c>C </c><c>   1</c></rc>
    <rc><c>C </c><c>   1</c></rc>
    <rc><c>C </c><c>   1</c></rc>
    <rc><c>C </c><c>   1</c></rc>
    <rc><c>C </c><c>   1</c></rc>
    <rc><c>C </c><c>   1</c></rc>
    <rc><c>C </c><c>   1</c></rc>
    <rc><c>C </c><c>   1</c></rc>
    <rc><c>C </c><c>   1</c></rc>
    <rc><c>C </c><c>   1</c></rc>
    <rc><c>C </c><c>   1</c></rc>
    <rc><c>C </c><c>   1</c></rc>
    <rc><c>C </c><c>   1</c></rc>
    <rc><c>C </c><c>   1</c></rc>
    <rc><c>C </c><c>   1</c></rc>
    <rc><c>C </c><c>   1</c></rc>
    <rc><c>C </c><c>   1</c></rc>
    <rc><c>C </c><c>   1</c></rc>
    <rc><c>C </c><c>   1</c></rc>
    <rc><c>C </c><c>   1</c></rc>
    <rc><c>C </c><c>   1</c></rc>
    <rc><c>C </c><c>   1</c></rc>
    <rc><c>C </c><c>   1</c></rc>
    <rc><c>C </c><c>   1</c></rc>
    <rc><c>C </c><c>   1</c></rc>
    <rc><c>C </c><c>   1</c></rc>
    <rc><c>C </c><c>   1</c></rc>
    <rc><c>C </c><c>   1</c></rc>
    <rc><c>C </c><c>   1</c></rc>
    <rc><c>C </c><c>   1</c></rc>
    <rc><c>C </c><c>   1</c></rc>
    <rc><c>C </c><c>   1</c></rc>
    <rc><c>C </c><c>   1</c></rc>
    <rc><c>C </c><c>   1</c></rc>
    <rc><c>C </c><c>   1</c></rc>
    <rc><c>C </c><c>   1</c></rc>
    <rc><c>C </c><c>   1</c></rc>
    <rc><c>C </c><c>   1</c></rc>
    <rc><c>C </c><c>   1</c></rc>
    <rc><c>C </c><c>   1</c></rc>
    <rc><c>C </c><c>   1</c></rc>
    <rc><c>C </c><c>   1</c></rc>
    <rc><c>C </c><c>   1</c></rc>
    <rc><c>C </c><c>   1</c></rc>
    <rc><c>C </c><c>   1</c></rc>
    <rc><c>C </c><c>   1</c></rc>
    <rc><c>C </c><c>   1</c></rc>
    <rc><c>C </c><c>   1</c></rc>
    <rc><c>C </c><c>   1</c></rc>
    <rc><c>C </c><c>   1</c></rc>
    <rc><c>C </c><c>   1</c></rc>
    <rc><c>C </c><c>   1</c></rc>
    <rc><c>C </c><c>   1</c></rc>
    <rc><c>C </c><c>   1</c></rc>
    <rc><c>C </c><c>   1</c></rc>
    <rc><c>C </c><c>   1</c></rc>
    <rc><c>C </c><c>   1</c></rc>
    <rc><c>C </c><c>   1</c></rc>
    <rc><c>C </c><c>   1</c></rc>
    <rc><c>C </c><c>   1</c></rc>
    <rc><c>C </c><c>   1</c></rc>
    <rc><c>C </c><c>   1</c></rc>
    <rc><c>C </c><c>   1</c></rc>
    <rc><c>C </c><c>   1</c></rc>
    <rc><c>C </c><c>   1</c></rc>
    <rc><c>C </c><c>   1</c></rc>
    <rc><c>C </c><c>   1</c></rc>
    <rc><c>C </c><c>   1</c></rc>
    <rc><c>C </c><c>   1</c></rc>
    <rc><c>C </c><c>   1</c></rc>
    <rc><c>C </c><c>   1</c></rc>
    <rc><c>C </c><c>   1</c></rc>
    <rc><c>C </c><c>   1</c></rc>
    <rc><c>C </c><c>   1</c></rc>
    <rc><c>C </c><c>   1</c></rc>
    <rc><c>C </c><c>   1</c></rc>
    <rc><c>C </c><c>   1</c></rc>
    <rc><c>C </c><c>   1</c></rc>
    <rc><c>C </c><c>   1</c></rc>
    <rc><c>C </c><c>   1</c></rc>
    <rc><c>C </c><c>   1</c></rc>
    <rc><c>C </c><c>   1</c></rc>
    <rc><c>C </c><c>   1</c></rc>
    <rc><c>C </c><c>   1</c></rc>
    <rc><c>N </c><c>   2</c></rc>
    <rc><c>N </c><c>   2</c></rc>
    <rc><c>N </c><c>   2</c></rc>
    <rc><c>N </c><c>   2</c></rc>
    <rc><c>N </c><c>   2</c></rc>
    <rc><c>N </c><c>   2</c></rc>
    <rc><c>N </c><c>   2</c></rc>
    <rc><c>N </c><c>   2</c></rc>
    <rc><c>N </c><c>   2</c></rc>
    <rc><c>N </c><c>   2</c></rc>
    <rc><c>N </c><c>   2</c></rc>
    <rc><c>N </c><c>   2</c></rc>
    <rc><c>N </c><c>   2</c></rc>
    <rc><c>N </c><c>   2</c></rc>
    <rc><c>N </c><c>   2</c></rc>
    <rc><c>N </c><c>   2</c></rc>
    <rc><c>N </c><c>   2</c></rc>
    <rc><c>N </c><c>   2</c></rc>
    <rc><c>N </c><c>   2</c></rc>
    <rc><c>N </c><c>   2</c></rc>
    <rc><c>N </c><c>   2</c></rc>
    <rc><c>N </c><c>   2</c></rc>
    <rc><c>N </c><c>   2</c></rc>
    <rc><c>N </c><c>   2</c></rc>
    <rc><c>H </c><c>   3</c></rc>
    <rc><c>H </c><c>   3</c></rc>
    <rc><c>H </c><c>   3</c></rc>
    <rc><c>H </c><c>   3</c></rc>
    <rc><c>H </c><c>   3</c></rc>
    <rc><c>H </c><c>   3</c></rc>
    <rc><c>H </c><c>   3</c></rc>
    <rc><c>H </c><c>   3</c></rc>
    <rc><c>H </c><c>   3</c></rc>
    <rc><c>H </c><c>   3</c></rc>
    <rc><c>H </c><c>   3</c></rc>
    <rc><c>H </c><c>   3</c></rc>
    <rc><c>H </c><c>   3</c></rc>
    <rc><c>H </c><c>   3</c></rc>
    <rc><c>H </c><c>   3</c></rc>
    <rc><c>H </c><c>   3</c></rc>
    <rc><c>H </c><c>   3</c></rc>
    <rc><c>H </c><c>   3</c></rc>
    <rc><c>H </c><c>   3</c></rc>
    <rc><c>H </c><c>   3</c></rc>
    <rc><c>H </c><c>   3</c></rc>
    <rc><c>H </c><c>   3</c></rc>
    <rc><c>H </c><c>   3</c></rc>
    <rc><c>H </c><c>   3</c></rc>
    <rc><c>H </c><c>   3</c></rc>
    <rc><c>H </c><c>   3</c></rc>
    <rc><c>H </c><c>   3</c></rc>
    <rc><c>H </c><c>   3</c></rc>
    <rc><c>H </c><c>   3</c></rc>
    <rc><c>H </c><c>   3</c></rc>
    <rc><c>H </c><c>   3</c></rc>
    <rc><c>H </c><c>   3</c></rc>
    <rc><c>H </c><c>   3</c></rc>
    <rc><c>H </c><c>   3</c></rc>
    <rc><c>H </c><c>   3</c></rc>
    <rc><c>H </c><c>   3</c></rc>
   </set>
  </array>
  <array name="atomtypes" >
   <dimension dim="1">type</dimension>
   <field type="int">atomspertype</field>
   <field type="string">element</field>
   <field>mass</field>
   <field>valence</field>
   <field type="string">pseudopotential</field>
   <set>
    <rc><c>  84</c><c>C </c><c>     12.01100000</c><c>      4.00000000</c><c>  PAW_PBE C 08Apr2002                   </c></rc>
    <rc><c>  24</c><c>N </c><c>     14.00100000</c><c>      5.00000000</c><c>  PAW_PBE N 08Apr2002                   </c></rc>
    <rc><c>  36</c><c>H </c><c>      1.00000000</c><c>      1.00000000</c><c>  PAW_PBE H 15Jun2001                   </c></rc>
   </set>
  </array>
 </atominfo>
 <structure name="initialpos" >
  <crystal>
   <varray name="basis" >
    <v>      34.00460635       0.00590042       0.00000000 </v>
    <v>     -16.98669735      29.43629397       0.00000000 </v>
    <v>       0.00000000       0.00000000      20.00000000 </v>
   </varray>
   <i name="volume">  20021.39634882 </i>
   <varray name="rec_basis" >
    <v>       0.02940484       0.01696854       0.00000000 </v>
    <v>      -0.00000589       0.03396827       0.00000000 </v>
    <v>       0.00000000       0.00000000       0.05000000 </v>
   </varray>
  </crystal>
  <varray name="positions" >
   <v>       0.84345083       0.15639245       0.43648709 </v>
   <v>       0.87766504       0.12146117       0.48861136 </v>
   <v>       0.90216947       0.09703620       0.48837693 </v>
   <v>       0.93708147       0.06303619       0.43548888 </v>
   <v>       0.84327788       0.69078440       0.43674292 </v>
   <v>       0.87718167       0.75993334       0.48882275 </v>
   <v>       0.90169444       0.80885371       0.48849475 </v>
   <v>       0.93689641       0.87768450       0.43543597 </v>
   <v>       0.30763672       0.15520438       0.43733378 </v>
   <v>       0.23841190       0.12072163       0.48903969 </v>
   <v>       0.18953372       0.09619526       0.48834624 </v>
   <v>       0.12090850       0.06141163       0.43482759 </v>
   <v>       0.84038747       0.46142051       0.43266381 </v>
   <v>       0.83022547       0.49683601       0.43025936 </v>
   <v>       0.82673416       0.31484272       0.48953639 </v>
   <v>       0.83028738       0.33741487       0.43022423 </v>
   <v>       0.84040695       0.38297567       0.43264939 </v>
   <v>       0.53626417       0.38307424       0.43354066 </v>
   <v>       0.50098833       0.33746330       0.43098960 </v>
   <v>       0.68268979       0.51595695       0.49057553 </v>
   <v>       0.66001457       0.49714241       0.43124849 </v>
   <v>       0.61450789       0.46165348       0.43367180 </v>
   <v>       0.61481884       0.15640839       0.43365461 </v>
   <v>       0.66039212       0.16665930       0.43122090 </v>
   <v>       0.48228980       0.17067462       0.49034446 </v>
   <v>       0.50130237       0.16703345       0.43107894 </v>
   <v>       0.53656631       0.15667769       0.43357003 </v>
   <v>       0.82662717       0.51581064       0.48958974 </v>
   <v>       0.48210103       0.31472810       0.49024741 </v>
   <v>       0.68303963       0.17044764       0.49053778 </v>
   <v>       0.97400191       0.02470177       0.49612728 </v>
   <v>       0.97383324       0.95300057       0.49593669 </v>
   <v>       0.95034886       0.97710962       0.49643102 </v>
   <v>       0.94884725       0.05005882       0.49661278 </v>
   <v>       0.94851624       0.90248935       0.49649797 </v>
   <v>       0.02139408       0.97690713       0.49503699 </v>
   <v>       0.04546852       0.02449592       0.49516176 </v>
   <v>       0.02156308       0.04818328       0.49536234 </v>
   <v>       0.80514256       0.26448823       0.49166061 </v>
   <v>       0.75760317       0.23996009       0.48973258 </v>
   <v>       0.73340809       0.19240249       0.49241394 </v>
   <v>       0.75749155       0.16903033       0.49639930 </v>
   <v>       0.80515039       0.19306897       0.49725085 </v>
   <v>       0.82885815       0.24073940       0.49544528 </v>
   <v>       0.73306010       0.54458896       0.49246012 </v>
   <v>       0.75739895       0.52136716       0.48983091 </v>
   <v>       0.80494163       0.54449112       0.49173312 </v>
   <v>       0.82853313       0.59195144       0.49553950 </v>
   <v>       0.80469856       0.61579479       0.49741926 </v>
   <v>       0.75703026       0.59205179       0.49647583 </v>
   <v>       0.45366930       0.19243862       0.49232794 </v>
   <v>       0.47677949       0.23999433       0.48967745 </v>
   <v>       0.45357798       0.26435566       0.49224413 </v>
   <v>       0.40616740       0.24044043       0.49666317 </v>
   <v>       0.38242407       0.19276278       0.49821904 </v>
   <v>       0.40624385       0.16889545       0.49668461 </v>
   <v>       0.83055622       0.16795715       0.49789361 </v>
   <v>       0.83003316       0.66632126       0.49813197 </v>
   <v>       0.33192355       0.16751053       0.49888698 </v>
   <v>       0.86664765       0.13128682       0.55275572 </v>
   <v>       0.84251699       0.15499225       0.55654522 </v>
   <v>       0.93601538       0.06188818       0.55553830 </v>
   <v>       0.91221405       0.08593330       0.55229997 </v>
   <v>       0.86578775       0.73911105       0.55294756 </v>
   <v>       0.84168060       0.69127262       0.55676044 </v>
   <v>       0.93538957       0.87790422       0.55549056 </v>
   <v>       0.91147164       0.83005323       0.55236486 </v>
   <v>       0.25904009       0.13131838       0.55332731 </v>
   <v>       0.30684878       0.15522365       0.55740523 </v>
   <v>       0.09594662       0.04962284       0.49573642 </v>
   <v>       0.12034495       0.06231957       0.55489250 </v>
   <v>       0.16816205       0.08604312       0.55207662 </v>
   <v>       0.83823400       0.50147209       0.54965541 </v>
   <v>       0.84628643       0.44633827       0.49620775 </v>
   <v>       0.84630693       0.40394375       0.49620223 </v>
   <v>       0.83832916       0.34077503       0.54961428 </v>
   <v>       0.49640313       0.34052550       0.55044550 </v>
   <v>       0.55138253       0.40386280       0.49718421 </v>
   <v>       0.59368755       0.44631776       0.49724396 </v>
   <v>       0.65686052       0.50137933       0.55071860 </v>
   <v>       0.65712375       0.15877192       0.55062734 </v>
   <v>       0.59391505       0.15062882       0.49721802 </v>
   <v>       0.55160314       0.15077910       0.49716251 </v>
   <v>       0.49654652       0.15902379       0.55045279 </v>
   <v>       0.86600582       0.13408769       0.43109737 </v>
   <v>       0.91467361       0.08552020       0.43064141 </v>
   <v>       0.86586459       0.73563844       0.43136084 </v>
   <v>       0.91443012       0.83278395       0.43069534 </v>
   <v>       0.26282911       0.13279377       0.43169381 </v>
   <v>       0.16580174       0.08378009       0.43036713 </v>
   <v>       0.84056088       0.40332993       0.37225366 </v>
   <v>       0.84055872       0.44123683       0.37225829 </v>
   <v>       0.59409110       0.44163090       0.37320493 </v>
   <v>       0.55629445       0.40365506       0.37313996 </v>
   <v>       0.55663373       0.15629084       0.37314093 </v>
   <v>       0.59444594       0.15613068       0.37321102 </v>
   <v>       0.90011834       0.09726209       0.61266841 </v>
   <v>       0.87817703       0.11909557       0.61286774 </v>
   <v>       0.89896203       0.80665280       0.61275004 </v>
   <v>       0.87692148       0.76287689       0.61302402 </v>
   <v>       0.19134096       0.09792792       0.61262493 </v>
   <v>       0.23509692       0.11965559       0.61325421 </v>
   <v>       0.84752243       0.46801849       0.55367501 </v>
   <v>       0.84757689       0.38350200       0.55366308 </v>
   <v>       0.52982555       0.38323534       0.55462915 </v>
   <v>       0.61419442       0.46782926       0.55475812 </v>
   <v>       0.61438361       0.14941966       0.55468944 </v>
   <v>       0.52996774       0.14970830       0.55458820 </v>
   <v>       0.73887400       0.48435564       0.48673064 </v>
   <v>       0.51375077       0.25851937       0.48613285 </v>
   <v>       0.94691740       0.05405710       0.38826021 </v>
   <v>       0.94688837       0.89644633       0.38817020 </v>
   <v>       0.94370711       0.05328096       0.60454165 </v>
   <v>       0.94297105       0.89429431       0.60442499 </v>
   <v>       0.03985685       0.95829975       0.49493565 </v>
   <v>       0.04015760       0.08524974       0.49542532 </v>
   <v>       0.91330311       0.95865191       0.49728486 </v>
   <v>       0.73930686       0.13197768       0.49786049 </v>
   <v>       0.86589809       0.25919568       0.49623553 </v>
   <v>       0.73897745       0.25834549       0.48657021 </v>
   <v>       0.86557715       0.61062747       0.49630466 </v>
   <v>       0.73875485       0.61083173       0.49788504 </v>
   <v>       0.38743804       0.25876737       0.49795933 </v>
   <v>       0.38755158       0.13184035       0.49798278 </v>
   <v>       0.83430212       0.16632977       0.38949262 </v>
   <v>       0.83442005       0.67172039       0.38974520 </v>
   <v>       0.32683118       0.16470331       0.39044333 </v>
   <v>       0.10228063       0.05162072       0.38744749 </v>
   <v>       0.82297523       0.50661358       0.38182814 </v>
   <v>       0.82303977       0.32040779       0.38178411 </v>
   <v>       0.49123814       0.32054722       0.38248325 </v>
   <v>       0.67692213       0.50707868       0.38275532 </v>
   <v>       0.67736736       0.17386700       0.38276183 </v>
   <v>       0.49164471       0.17434777       0.38259572 </v>
   <v>       0.83398452       0.16252016       0.60571579 </v>
   <v>       0.83297266       0.67525960       0.60595877 </v>
   <v>       0.32274893       0.16339685       0.60668497 </v>
   <v>       0.10384137       0.05455341       0.60373920 </v>
   <v>       0.83831723       0.51783271       0.59686006 </v>
   <v>       0.83842792       0.32449509       0.59681319 </v>
   <v>       0.48004396       0.32414738       0.59760363 </v>
   <v>       0.67315753       0.51760396       0.59797181 </v>
   <v>       0.67341725       0.15869593       0.59781919 </v>
   <v>       0.48015463       0.15893783       0.59761999 </v>
  </varray>
 </structure>
 <calculation>
  <scstep>
   <time name="dav">  591.71  597.42</time>
   <time name="total">  592.09  597.81</time>
   <energy>
    <i name="alphaZ">     57.25585543 </i>
    <i name="ewald">  66202.22134180 </i>
    <i name="hartreedc"> -81674.49701320 </i>
    <i name="XCdc">   1733.57145397 </i>
    <i name="pawpsdc">  47204.62530837 </i>
    <i name="pawaedc"> -47295.56860926 </i>
    <i name="eentropy">     -0.00000000 </i>
    <i name="bandstr">  -6460.87169665 </i>
    <i name="atom">  19158.81528317 </i>
    <i name="e_fr_energy">  -1074.44807637 </i>
    <i name="e_wo_entrp">  -1074.44807637 </i>
    <i name="e_0_energy">  -1074.44807637 </i>
   </energy>
  </scstep>
  <scstep>
   <time name="dav">  649.92  656.41</time>
   <time name="total">  649.95  656.44</time>
   <energy>
    <i name="e_fr_energy">  -1074.89633229 </i>
    <i name="e_wo_entrp">  -1074.89633229 </i>
    <i name="e_0_energy">  -1074.89633229 </i>
   </energy>
  </scstep>
  <scstep>
   <time name="dav">  714.25  721.57</time>
   <time name="total">  714.27  721.59</time>
   <energy>
    <i name="e_fr_energy">  -1074.90855978 </i>
    <i name="e_wo_entrp">  -1074.90855978 </i>
    <i name="e_0_energy">  -1074.90855978 </i>
   </energy>
  </scstep>
  <scstep>
   <time name="dav">  655.47  661.97</time>
   <time name="total">  655.47  661.97</time>
   <energy>
    <i name="e_fr_energy">  -1074.90881215 </i>
    <i name="e_wo_entrp">  -1074.90881215 </i>
    <i name="e_0_energy">  -1074.90881215 </i>
   </energy>
  </scstep>
  <scstep>
   <time name="dav">  580.85  586.43</time>
   <time name="total">  580.85  586.44</time>
   <energy>
    <i name="e_fr_energy">  -1074.90882332 </i>
    <i name="e_wo_entrp">  -1074.90882332 </i>
    <i name="e_0_energy">  -1074.90882332 </i>
   </energy>
  </scstep>
  <scstep>
   <time name="dav">  485.38  490.00</time>
   <time name="total">  485.40  490.01</time>
   <energy>
    <i name="alphaZ">     57.25585543 </i>
    <i name="ewald">  66202.22134180 </i>
    <i name="hartreedc"> -81674.49701320 </i>
    <i name="XCdc">   1733.57145397 </i>
    <i name="pawpsdc">  47204.62530837 </i>
    <i name="pawaedc"> -47295.56860926 </i>
    <i name="eentropy">     -0.00000000 </i>
    <i name="bandstr">  -6461.33244420 </i>
    <i name="atom">  19158.81528317 </i>
    <i name="e_fr_energy">  -1074.90882392 </i>
    <i name="e_wo_entrp">  -1074.90882392 </i>
    <i name="e_0_energy">  -1074.90882392 </i>
   </energy>
  </scstep>
  <structure>
   <crystal>
    <varray name="basis" >
     <v>      34.00460635       0.00590042       0.00000000 </v>
     <v>     -16.98669735      29.43629397       0.00000000 </v>
     <v>       0.00000000       0.00000000      20.00000000 </v>
    </varray>
    <i name="volume">  20021.39634882 </i>
    <varray name="rec_basis" >
     <v>       0.02940484       0.01696854       0.00000000 </v>
     <v>      -0.00000589       0.03396827       0.00000000 </v>
     <v>       0.00000000       0.00000000       0.05000000 </v>
    </varray>
   </crystal>
   <varray name="positions" >
    <v>       0.84345083       0.15639245       0.43648709 </v>
    <v>       0.87766504       0.12146117       0.48861136 </v>
    <v>       0.90216947       0.09703620       0.48837693 </v>
    <v>       0.93708147       0.06303619       0.43548888 </v>
    <v>       0.84327788       0.69078440       0.43674292 </v>
    <v>       0.87718167       0.75993334       0.48882275 </v>
    <v>       0.90169444       0.80885371       0.48849475 </v>
    <v>       0.93689641       0.87768450       0.43543597 </v>
    <v>       0.30763672       0.15520438       0.43733378 </v>
    <v>       0.23841190       0.12072163       0.48903969 </v>
    <v>       0.18953372       0.09619526       0.48834624 </v>
    <v>       0.12090850       0.06141163       0.43482759 </v>
    <v>       0.84038747       0.46142051       0.43266381 </v>
    <v>       0.83022547       0.49683601       0.43025936 </v>
    <v>       0.82673416       0.31484272       0.48953639 </v>
    <v>       0.83028738       0.33741487       0.43022423 </v>
    <v>       0.84040695       0.38297567       0.43264939 </v>
    <v>       0.53626417       0.38307424       0.43354066 </v>
    <v>       0.50098833       0.33746330       0.43098960 </v>
    <v>       0.68268979       0.51595695       0.49057553 </v>
    <v>       0.66001457       0.49714241       0.43124849 </v>
    <v>       0.61450789       0.46165348       0.43367180 </v>
    <v>       0.61481884       0.15640839       0.43365461 </v>
    <v>       0.66039212       0.16665930       0.43122090 </v>
    <v>       0.48228980       0.17067462       0.49034446 </v>
    <v>       0.50130237       0.16703345       0.43107894 </v>
    <v>       0.53656631       0.15667769       0.43357003 </v>
    <v>       0.82662717       0.51581064       0.48958974 </v>
    <v>       0.48210103       0.31472810       0.49024741 </v>
    <v>       0.68303963       0.17044764       0.49053778 </v>
    <v>       0.97400191       0.02470177       0.49612728 </v>
    <v>       0.97383324       0.95300057       0.49593669 </v>
    <v>       0.95034886       0.97710962       0.49643102 </v>
    <v>       0.94884725       0.05005882       0.49661278 </v>
    <v>       0.94851624       0.90248935       0.49649797 </v>
    <v>       0.02139408       0.97690713       0.49503699 </v>
    <v>       0.04546852       0.02449592       0.49516176 </v>
    <v>       0.02156308       0.04818328       0.49536234 </v>
    <v>       0.80514256       0.26448823       0.49166061 </v>
    <v>       0.75760317       0.23996009       0.48973258 </v>
    <v>       0.73340809       0.19240249       0.49241394 </v>
    <v>       0.75749155       0.16903033       0.49639930 </v>
    <v>       0.80515039       0.19306897       0.49725085 </v>
    <v>       0.82885815       0.24073940       0.49544528 </v>
    <v>       0.73306010       0.54458896       0.49246012 </v>
    <v>       0.75739895       0.52136716       0.48983091 </v>
    <v>       0.80494163       0.54449112       0.49173312 </v>
    <v>       0.82853313       0.59195144       0.49553950 </v>
    <v>       0.80469856       0.61579479       0.49741926 </v>
    <v>       0.75703026       0.59205179       0.49647583 </v>
    <v>       0.45366930       0.19243862       0.49232794 </v>
    <v>       0.47677949       0.23999433       0.48967745 </v>
    <v>       0.45357798       0.26435566       0.49224413 </v>
    <v>       0.40616740       0.24044043       0.49666317 </v>
    <v>       0.38242407       0.19276278       0.49821904 </v>
    <v>       0.40624385       0.16889545       0.49668461 </v>
    <v>       0.83055622       0.16795715       0.49789361 </v>
    <v>       0.83003316       0.66632126       0.49813197 </v>
    <v>       0.33192355       0.16751053       0.49888698 </v>
    <v>       0.86664765       0.13128682       0.55275572 </v>
    <v>       0.84251699       0.15499225       0.55654522 </v>
    <v>       0.93601538       0.06188818       0.55553830 </v>
    <v>       0.91221405       0.08593330       0.55229997 </v>
    <v>       0.86578775       0.73911105       0.55294756 </v>
    <v>       0.84168060       0.69127262       0.55676044 </v>
    <v>       0.93538957       0.87790422       0.55549056 </v>
    <v>       0.91147164       0.83005323       0.55236486 </v>
    <v>       0.25904009       0.13131838       0.55332731 </v>
    <v>       0.30684878       0.15522365       0.55740523 </v>
    <v>       0.09594662       0.04962284       0.49573642 </v>
    <v>       0.12034495       0.06231957       0.55489250 </v>
    <v>       0.16816205       0.08604312       0.55207662 </v>
    <v>       0.83823400       0.50147209       0.54965541 </v>
    <v>       0.84628643       0.44633827       0.49620775 </v>
    <v>       0.84630693       0.40394375       0.49620223 </v>
    <v>       0.83832916       0.34077503       0.54961428 </v>
    <v>       0.49640313       0.34052550       0.55044550 </v>
    <v>       0.55138253       0.40386280       0.49718421 </v>
    <v>       0.59368755       0.44631776       0.49724396 </v>
    <v>       0.65686052       0.50137933       0.55071860 </v>
    <v>       0.65712375       0.15877192       0.55062734 </v>
    <v>       0.59391505       0.15062882       0.49721802 </v>
    <v>       0.55160314       0.15077910       0.49716251 </v>
    <v>       0.49654652       0.15902379       0.55045279 </v>
    <v>       0.86600582       0.13408769       0.43109737 </v>
    <v>       0.91467361       0.08552020       0.43064141 </v>
    <v>       0.86586459       0.73563844       0.43136084 </v>
    <v>       0.91443012       0.83278395       0.43069534 </v>
    <v>       0.26282911       0.13279377       0.43169381 </v>
    <v>       0.16580174       0.08378009       0.43036713 </v>
    <v>       0.84056088       0.40332993       0.37225366 </v>
    <v>       0.84055872       0.44123683       0.37225829 </v>
    <v>       0.59409110       0.44163090       0.37320493 </v>
    <v>       0.55629445       0.40365506       0.37313996 </v>
    <v>       0.55663373       0.15629084       0.37314093 </v>
    <v>       0.59444594       0.15613068       0.37321102 </v>
    <v>       0.90011834       0.09726209       0.61266841 </v>
    <v>       0.87817703       0.11909557       0.61286774 </v>
    <v>       0.89896203       0.80665280       0.61275004 </v>
    <v>       0.87692148       0.76287689       0.61302402 </v>
    <v>       0.19134096       0.09792792       0.61262493 </v>
    <v>       0.23509692       0.11965559       0.61325421 </v>
    <v>       0.84752243       0.46801849       0.55367501 </v>
    <v>       0.84757689       0.38350200       0.55366308 </v>
    <v>       0.52982555       0.38323534       0.55462915 </v>
    <v>       0.61419442       0.46782926       0.55475812 </v>
    <v>       0.61438361       0.14941966       0.55468944 </v>
    <v>       0.52996774       0.14970830       0.55458820 </v>
    <v>       0.73887400       0.48435564       0.48673064 </v>
    <v>       0.51375077       0.25851937       0.48613285 </v>
    <v>       0.94691740       0.05405710       0.38826021 </v>
    <v>       0.94688837       0.89644633       0.38817020 </v>
    <v>       0.94370711       0.05328096       0.60454165 </v>
    <v>       0.94297105       0.89429431       0.60442499 </v>
    <v>       0.03985685       0.95829975       0.49493565 </v>
    <v>       0.04015760       0.08524974       0.49542532 </v>
    <v>       0.91330311       0.95865191       0.49728486 </v>
    <v>       0.73930686       0.13197768       0.49786049 </v>
    <v>       0.86589809       0.25919568       0.49623553 </v>
    <v>       0.73897745       0.25834549       0.48657021 </v>
    <v>       0.86557715       0.61062747       0.49630466 </v>
    <v>       0.73875485       0.61083173       0.49788504 </v>
    <v>       0.38743804       0.25876737       0.49795933 </v>
    <v>       0.38755158       0.13184035       0.49798278 </v>
    <v>       0.83430212       0.16632977       0.38949262 </v>
    <v>       0.83442005       0.67172039       0.38974520 </v>
    <v>       0.32683118       0.16470331       0.39044333 </v>
    <v>       0.10228063       0.05162072       0.38744749 </v>
    <v>       0.82297523       0.50661358       0.38182814 </v>
    <v>       0.82303977       0.32040779       0.38178411 </v>
    <v>       0.49123814       0.32054722       0.38248325 </v>
    <v>       0.67692213       0.50707868       0.38275532 </v>
    <v>       0.67736736       0.17386700       0.38276183 </v>
    <v>       0.49164471       0.17434777       0.38259572 </v>
    <v>       0.83398452       0.16252016       0.60571579 </v>
    <v>       0.83297266       0.67525960       0.60595877 </v>
    <v>       0.32274893       0.16339685       0.60668497 </v>
    <v>       0.10384137       0.05455341       0.60373920 </v>
    <v>       0.83831723       0.51783271       0.59686006 </v>
    <v>       0.83842792       0.32449509       0.59681319 </v>
    <v>       0.48004396       0.32414738       0.59760363 </v>
    <v>       0.67315753       0.51760396       0.59797181 </v>
    <v>       0.67341725       0.15869593       0.59781919 </v>
    <v>       0.48015463       0.15893783       0.59761999 </v>
   </varray>
  </structure>
  <varray name="forces" >
   <v>       0.00031347       0.00072941      -0.00005460 </v>
   <v>       0.00081640       0.00041148       0.00185895 </v>
   <v>       0.00021151       0.00049222       0.00000509 </v>
   <v>       0.00007249      -0.00061800      -0.00004769 </v>
   <v>       0.00035966      -0.00032543      -0.00000288 </v>
   <v>      -0.00128426       0.00139433       0.00390153 </v>
   <v>      -0.00006905      -0.00173249       0.00054670 </v>
   <v>      -0.00003844      -0.00222165       0.00242645 </v>
   <v>       0.00045619       0.00002555      -0.00096925 </v>
   <v>      -0.00014050       0.00143249       0.00138177 </v>
   <v>       0.00112715       0.00300885      -0.00107184 </v>
   <v>      -0.00062472       0.00141087      -0.00028464 </v>
   <v>      -0.00002549       0.00243298       0.00095348 </v>
   <v>      -0.00049550      -0.00031885      -0.00030571 </v>
   <v>      -0.00053683      -0.00056024       0.00113555 </v>
   <v>      -0.00088615      -0.00013189       0.00070107 </v>
   <v>       0.00334112      -0.00010088       0.00334530 </v>
   <v>       0.00200594       0.00101351      -0.00569097 </v>
   <v>       0.00083883      -0.00143826       0.00073434 </v>
   <v>       0.00125339       0.00226087       0.00202827 </v>
   <v>      -0.00001100      -0.00102822       0.00005856 </v>
   <v>       0.00123059       0.00208481      -0.00266013 </v>
   <v>       0.00107572       0.00020190      -0.00460459 </v>
   <v>       0.00050556      -0.00035989       0.00031635 </v>
   <v>      -0.00176046       0.00161230      -0.00428946 </v>
   <v>      -0.00235049      -0.00078612      -0.00081250 </v>
   <v>      -0.00147954       0.00035559      -0.00444236 </v>
   <v>      -0.00069560       0.00271575      -0.00035061 </v>
   <v>       0.00148074       0.00003792      -0.00136551 </v>
   <v>      -0.00072771      -0.00272876       0.00063020 </v>
   <v>       0.00012764      -0.00105233      -0.00000461 </v>
   <v>      -0.00022834      -0.00029368       0.00065249 </v>
   <v>      -0.00019532      -0.00049935      -0.00002212 </v>
   <v>      -0.00067032      -0.00035225       0.00061385 </v>
   <v>      -0.00191324       0.00066013      -0.00086941 </v>
   <v>       0.00019510       0.00172205      -0.00017841 </v>
   <v>       0.00144804      -0.00001000       0.00034630 </v>
   <v>       0.00103311      -0.00099191      -0.00037467 </v>
   <v>       0.00091894       0.00240075      -0.00027488 </v>
   <v>       0.00073313      -0.00261635      -0.00000369 </v>
   <v>      -0.00101391      -0.00159302       0.00061993 </v>
   <v>       0.00094881      -0.00154425      -0.00078476 </v>
   <v>      -0.00062667      -0.00229961       0.00183255 </v>
   <v>      -0.00195522       0.00125689       0.00066585 </v>
   <v>       0.00001282      -0.00024865      -0.00090043 </v>
   <v>      -0.00098745       0.00015047       0.00026475 </v>
   <v>      -0.00082405      -0.00095743       0.00096434 </v>
   <v>       0.00117748      -0.00205560       0.00097549 </v>
   <v>      -0.00082810       0.00039388      -0.00046836 </v>
   <v>      -0.00137287      -0.00250436       0.00090440 </v>
   <v>      -0.00281392       0.00116380       0.00124455 </v>
   <v>      -0.00137708      -0.00132562       0.00015344 </v>
   <v>       0.00229429       0.00031347      -0.00098725 </v>
   <v>       0.00203280      -0.00240565      -0.00061195 </v>
   <v>       0.00033504      -0.00095550       0.00027238 </v>
   <v>       0.00147418      -0.00068506       0.00188798 </v>
   <v>       0.00104751      -0.00112235       0.00251888 </v>
   <v>       0.00077375       0.00205272       0.00058317 </v>
   <v>       0.00106314       0.00079799       0.00129520 </v>
   <v>       0.00143699       0.00003441      -0.00096307 </v>
   <v>      -0.00000275       0.00127408      -0.00054351 </v>
   <v>      -0.00042428      -0.00057542      -0.00010411 </v>
   <v>      -0.00038530      -0.00071970      -0.00166896 </v>
   <v>      -0.00144267       0.00258268       0.00851706 </v>
   <v>      -0.00055609       0.00168444       0.00223062 </v>
   <v>      -0.00044569      -0.00129179      -0.00205516 </v>
   <v>       0.00020320      -0.00122348       0.00024313 </v>
   <v>      -0.00410092      -0.00139700      -0.00032526 </v>
   <v>      -0.00169966      -0.00144837      -0.00105384 </v>
   <v>      -0.00101220       0.00010335      -0.00207386 </v>
   <v>      -0.00143206      -0.00127747      -0.00079725 </v>
   <v>       0.00045158      -0.00126467      -0.00166665 </v>
   <v>       0.00224589       0.00027145      -0.00465031 </v>
   <v>       0.00251936       0.00000176       0.00045411 </v>
   <v>       0.00189645       0.00058809       0.00126928 </v>
   <v>       0.00003318       0.00130553      -0.00257899 </v>
   <v>      -0.00096313      -0.00191953      -0.00265443 </v>
   <v>      -0.00046572       0.00277308      -0.00408202 </v>
   <v>       0.00024847      -0.00030525       0.00009129 </v>
   <v>       0.00035127       0.00006457      -0.00508621 </v>
   <v>       0.00220343       0.00116909      -0.00252087 </v>
   <v>      -0.00347049       0.00112106       0.00214877 </v>
   <v>      -0.00554349      -0.00102831      -0.00231672 </v>
   <v>       0.00047364      -0.00031140       0.00070585 </v>
   <v>      -0.00152389       0.00195832       0.00232839 </v>
   <v>       0.00081602       0.00052877      -0.00067625 </v>
   <v>       0.00039216      -0.00190610      -0.00134824 </v>
   <v>      -0.00091259      -0.00016605      -0.00150431 </v>
   <v>      -0.00078695      -0.00067085      -0.00057682 </v>
   <v>       0.00017240       0.00178136       0.00300912 </v>
   <v>       0.00152466       0.00245200      -0.00282412 </v>
   <v>      -0.00094563       0.00364587      -0.00051461 </v>
   <v>      -0.00020072       0.00082561      -0.00494072 </v>
   <v>      -0.00280711      -0.00224320      -0.00182764 </v>
   <v>      -0.00015519       0.00078516       0.00275739 </v>
   <v>       0.00148419       0.00293829      -0.00138416 </v>
   <v>       0.00011423      -0.00123741       0.00203822 </v>
   <v>       0.00031365      -0.00007760       0.00007835 </v>
   <v>      -0.00146686       0.00561936       0.00402094 </v>
   <v>      -0.00585461       0.00092194       0.00018859 </v>
   <v>       0.00270357      -0.00096662       0.00308215 </v>
   <v>       0.00318395       0.00130687       0.00090812 </v>
   <v>       0.00369807       0.00142338       0.00178783 </v>
   <v>       0.00080473       0.00017597      -0.00386060 </v>
   <v>      -0.00156380       0.00000445       0.00150275 </v>
   <v>      -0.00093061      -0.00291106      -0.00127397 </v>
   <v>      -0.00002139       0.00013899       0.00323450 </v>
   <v>       0.00103012      -0.00351624      -0.00057161 </v>
   <v>      -0.00097954      -0.00024914      -0.00271156 </v>
   <v>      -0.00017476      -0.00089531       0.00084329 </v>
   <v>      -0.00003524      -0.00050826       0.00114628 </v>
   <v>       0.00090135       0.00117685       0.00078453 </v>
   <v>       0.00084772      -0.00015092       0.00039157 </v>
   <v>      -0.00176084      -0.00312980       0.00066681 </v>
   <v>       0.00026129       0.00085711      -0.00068474 </v>
   <v>      -0.00027128       0.00147803       0.00058658 </v>
   <v>      -0.00039693       0.00061909      -0.00101367 </v>
   <v>       0.00058687       0.00031261      -0.00058484 </v>
   <v>       0.00154333      -0.00021067       0.00153473 </v>
   <v>       0.00053261      -0.00136499      -0.00056342 </v>
   <v>      -0.00088325       0.00053198       0.00351125 </v>
   <v>       0.00041369       0.00101324       0.00204655 </v>
   <v>      -0.00136653      -0.00017632       0.00108725 </v>
   <v>       0.00084943      -0.00088917       0.00110127 </v>
   <v>       0.00222608       0.00136500       0.00075899 </v>
   <v>       0.00157566      -0.00353381      -0.00045312 </v>
   <v>       0.00107495      -0.00114934      -0.00005363 </v>
   <v>       0.00089566       0.00033117       0.00041314 </v>
   <v>      -0.00033682      -0.00375044       0.00144817 </v>
   <v>      -0.00227372      -0.00137211      -0.00195331 </v>
   <v>       0.00064563      -0.00120494      -0.00212134 </v>
   <v>       0.00139102      -0.00072834      -0.00079580 </v>
   <v>      -0.00208775       0.00203829       0.00005723 </v>
   <v>       0.00004359      -0.00025796       0.00275632 </v>
   <v>       0.00222946       0.00021438       0.00187774 </v>
   <v>      -0.00413081      -0.00146380      -0.00144054 </v>
   <v>       0.00200192      -0.00112233       0.00212865 </v>
   <v>      -0.00057995      -0.00145293       0.00050129 </v>
   <v>       0.00217513       0.00375626       0.00178906 </v>
   <v>       0.00507092       0.00101663      -0.00055704 </v>
   <v>       0.00153091       0.00107238      -0.00294641 </v>
   <v>      -0.00097594       0.00275227       0.00123529 </v>
   <v>      -0.00224290      -0.00293482      -0.00050056 </v>
   <v>      -0.00226064       0.00031842       0.00217591 </v>
  </varray>
  <varray name="stress" >
   <v>       0.00047948      -0.00091136      -0.00547496 </v>
   <v>      -0.00091136      -0.00041967       0.00604162 </v>
   <v>      -0.00547496       0.00604162      -0.12724979 </v>
  </varray>
  <energy>
   <i name="e_fr_energy">  -1077.83210223 </i>
   <i name="e_wo_entrp">  -1077.83210223 </i>
   <i name="e_0_energy">     -0.00000000 </i>
  </energy>
  <time name="totalsc"> 4284.41 4328.22</time>
  <eigenvalues>
   <array>
    <dimension dim="1">band</dimension>
    <dimension dim="2">kpoint</dimension>
    <dimension dim="3">spin</dimension>
    <field>eigene</field>
    <field>occ</field>
    <set>
     <set comment="spin 1">
      <set comment="kpoint 1">
       <r>  -25.8585    1.0000 </r>
       <r>  -25.8561    1.0000 </r>
       <r>  -25.8549    1.0000 </r>
       <r>  -25.8485    1.0000 </r>
       <r>  -25.8458    1.0000 </r>
       <r>  -25.8457    1.0000 </r>
       <r>  -24.0963    1.0000 </r>
       <r>  -24.0936    1.0000 </r>
       <r>  -24.0922    1.0000 </r>
       <r>  -24.0885    1.0000 </r>
       <r>  -24.0866    1.0000 </r>
       <r>  -24.0851    1.0000 </r>
       <r>  -23.7175    1.0000 </r>
       <r>  -23.7144    1.0000 </r>
       <r>  -23.7144    1.0000 </r>
       <r>  -23.7078    1.0000 </r>
       <r>  -23.7077    1.0000 </r>
       <r>  -23.7038    1.0000 </r>
       <r>  -22.1581    1.0000 </r>
       <r>  -22.1273    1.0000 </r>
       <r>  -22.1260    1.0000 </r>
       <r>  -22.1229    1.0000 </r>
       <r>  -21.0766    1.0000 </r>
       <r>  -21.0753    1.0000 </r>
       <r>  -21.0629    1.0000 </r>
       <r>  -21.0327    1.0000 </r>
       <r>  -21.0214    1.0000 </r>
       <r>  -21.0203    1.0000 </r>
       <r>  -20.9001    1.0000 </r>
       <r>  -20.8991    1.0000 </r>
       <r>  -20.7359    1.0000 </r>
       <r>  -20.7116    1.0000 </r>
       <r>  -20.7110    1.0000 </r>
       <r>  -20.3034    1.0000 </r>
       <r>  -20.3025    1.0000 </r>
       <r>  -20.2740    1.0000 </r>
       <r>  -20.2030    1.0000 </r>
       <r>  -20.0429    1.0000 </r>
       <r>  -20.0422    1.0000 </r>
       <r>  -20.0401    1.0000 </r>
       <r>  -20.0350    1.0000 </r>
       <r>  -20.0346    1.0000 </r>
       <r>  -19.9504    1.0000 </r>
       <r>  -19.5501    1.0000 </r>
       <r>  -19.5496    1.0000 </r>
       <r>  -19.5412    1.0000 </r>
       <r>  -18.9052    1.0000 </r>
       <r>  -18.9049    1.0000 </r>
       <r>  -18.6274    1.0000 </r>
       <r>  -18.6264    1.0000 </r>
       <r>  -18.6200    1.0000 </r>
       <r>  -18.3438    1.0000 </r>
       <r>  -18.2806    1.0000 </r>
       <r>  -18.2799    1.0000 </r>
       <r>  -17.1774    1.0000 </r>
       <r>  -17.1707    1.0000 </r>
       <r>  -17.1707    1.0000 </r>
       <r>  -17.1697    1.0000 </r>
       <r>  -17.1683    1.0000 </r>
       <r>  -17.1556    1.0000 </r>
       <r>  -16.9471    1.0000 </r>
       <r>  -16.9138    1.0000 </r>
       <r>  -16.9133    1.0000 </r>
       <r>  -16.8713    1.0000 </r>
       <r>  -16.8674    1.0000 </r>
       <r>  -16.8366    1.0000 </r>
       <r>  -16.3579    1.0000 </r>
       <r>  -16.3558    1.0000 </r>
       <r>  -16.3551    1.0000 </r>
       <r>  -16.3502    1.0000 </r>
       <r>  -16.3500    1.0000 </r>
       <r>  -16.3323    1.0000 </r>
       <r>  -15.7820    1.0000 </r>
       <r>  -15.7248    1.0000 </r>
       <r>  -15.7236    1.0000 </r>
       <r>  -15.4698    1.0000 </r>
       <r>  -15.4599    1.0000 </r>
       <r>  -15.4579    1.0000 </r>
       <r>  -15.1231    1.0000 </r>
       <r>  -15.1223    1.0000 </r>
       <r>  -15.0673    1.0000 </r>
       <r>  -15.0642    1.0000 </r>
       <r>  -15.0595    1.0000 </r>
       <r>  -15.0569    1.0000 </r>
       <r>  -15.0311    1.0000 </r>
       <r>  -15.0294    1.0000 </r>
       <r>  -14.4353    1.0000 </r>
       <r>  -14.4345    1.0000 </r>
       <r>  -14.4291    1.0000 </r>
       <r>  -14.1339    1.0000 </r>
       <r>  -13.6037    1.0000 </r>
       <r>  -13.6032    1.0000 </r>
       <r>  -13.5954    1.0000 </r>
       <r>  -13.5948    1.0000 </r>
       <r>  -13.5853    1.0000 </r>
       <r>  -13.5687    1.0000 </r>
       <r>  -13.5673    1.0000 </r>
       <r>  -13.5463    1.0000 </r>
       <r>  -13.2381    1.0000 </r>
       <r>  -13.2218    1.0000 </r>
       <r>  -13.2214    1.0000 </r>
       <r>  -13.2206    1.0000 </r>
       <r>  -13.2117    1.0000 </r>
       <r>  -13.2116    1.0000 </r>
       <r>  -13.0244    1.0000 </r>
       <r>  -12.8626    1.0000 </r>
       <r>  -12.8536    1.0000 </r>
       <r>  -12.8534    1.0000 </r>
       <r>  -12.4813    1.0000 </r>
       <r>  -12.4780    1.0000 </r>
       <r>  -12.4711    1.0000 </r>
       <r>  -12.4450    1.0000 </r>
       <r>  -12.4438    1.0000 </r>
       <r>  -12.4279    1.0000 </r>
       <r>  -12.0971    1.0000 </r>
       <r>  -12.0679    1.0000 </r>
       <r>  -12.0669    1.0000 </r>
       <r>  -12.0467    1.0000 </r>
       <r>  -12.0412    1.0000 </r>
       <r>  -12.0161    1.0000 </r>
       <r>  -12.0121    1.0000 </r>
       <r>  -11.9938    1.0000 </r>
       <r>  -11.9889    1.0000 </r>
       <r>  -11.9239    1.0000 </r>
       <r>  -11.8677    1.0000 </r>
       <r>  -11.8414    1.0000 </r>
       <r>  -11.8409    1.0000 </r>
       <r>  -11.6072    1.0000 </r>
       <r>  -11.6059    1.0000 </r>
       <r>  -11.5981    1.0000 </r>
       <r>  -11.4128    1.0000 </r>
       <r>  -11.3689    1.0000 </r>
       <r>  -11.3555    1.0000 </r>
       <r>  -11.3550    1.0000 </r>
       <r>  -11.2983    1.0000 </r>
       <r>  -11.2974    1.0000 </r>
       <r>  -11.2923    1.0000 </r>
       <r>  -10.9967    1.0000 </r>
       <r>  -10.9958    1.0000 </r>
       <r>  -10.9696    1.0000 </r>
       <r>  -10.7481    1.0000 </r>
       <r>  -10.7475    1.0000 </r>
       <r>  -10.4657    1.0000 </r>
       <r>  -10.4636    1.0000 </r>
       <r>  -10.3612    1.0000 </r>
       <r>  -10.3383    1.0000 </r>
       <r>  -10.2622    1.0000 </r>
       <r>  -10.2614    1.0000 </r>
       <r>  -10.1518    1.0000 </r>
       <r>  -10.1351    1.0000 </r>
       <r>  -10.1345    1.0000 </r>
       <r>  -10.1288    1.0000 </r>
       <r>  -10.1198    1.0000 </r>
       <r>  -10.1188    1.0000 </r>
[...]
       <r>   -18.0900     0.0000   108.0000 </r>
       <r>   -17.9922     0.0000   108.0000 </r>
       <r>   -17.8943     0.0000   108.0000 </r>
       <r>   -17.7964     0.0000   108.0000 </r>
       <r>   -17.6985     0.0000   108.0000 </r>
       <r>   -17.6006     0.0000   108.0000 </r>
       <r>   -17.5027     0.0000   108.0000 </r>
       <r>   -17.4048     0.0000   108.0000 </r>
       <r>   -17.3070     0.0000   108.0000 </r>
       <r>   -17.2091     0.0001   108.0000 </r>
       <r>   -17.1112   122.5940   120.0000 </r>
       <r>   -17.0133     0.0000   120.0000 </r>
       <r>   -16.9154    38.9644   123.8140 </r>
       <r>   -16.8175    61.0418   131.9750 </r>
       <r>   -16.7197     0.0000   132.0000 </r>
       <r>   -16.6218     0.0000   132.0000 </r>
       <r>   -16.5239     0.0000   132.0000 </r>
       <r>   -16.4260     0.0000   132.0000 </r>
       <r>   -16.3281   117.1057   143.4628 </r>
       <r>   -16.2302     0.0000   144.0000 </r>
       <r>   -16.1324     0.0000   144.0000 </r>
       <r>   -16.0345     0.0000   144.0000 </r>
       <r>   -15.9366     0.0000   144.0000 </r>
       <r>   -15.8387     0.0000   144.0000 </r>
       <r>   -15.7408    20.6300   146.0193 </r>
       <r>   -15.6429    18.0426   150.0000 </r>
       <r>   -15.5451    14.3695   151.4065 </r>
       <r>   -15.4472    25.1764   154.0310 </r>
       <r>   -15.3493    12.2381   155.4647 </r>
       <r>   -15.2514     0.0000   156.0000 </r>
       <r>   -15.1535     0.0002   156.0000 </r>
       <r>   -15.0556   102.2519   166.0088 </r>
       <r>   -14.9577    40.8374   172.0000 </r>
       <r>   -14.8599     0.0000   172.0000 </r>
       <r>   -14.7620     0.0000   172.0000 </r>
       <r>   -14.6641     0.0000   172.0000 </r>
       <r>   -14.5662     0.0024   172.0002 </r>
       <r>   -14.4683    17.5118   173.7144 </r>
       <r>   -14.3704    26.1866   176.4299 </r>
       <r>   -14.2726    12.0195   177.7432 </r>
       <r>   -14.1747     9.8857   178.9677 </r>
       <r>   -14.0768     7.1487   180.0000 </r>
       <r>   -13.9789     0.0000   180.0000 </r>
       <r>   -13.8810     0.0000   180.0000 </r>
       <r>   -13.7831     0.0000   180.0000 </r>
       <r>   -13.6853     0.0000   180.0000 </r>
       <r>   -13.5874    88.3152   188.6446 </r>
       <r>   -13.4895    61.2090   196.0000 </r>
       <r>   -13.3916     0.0000   196.0000 </r>
       <r>   -13.2937     0.0000   196.0000 </r>
       <r>   -13.1958   122.0698   207.9487 </r>
       <r>   -13.0980     0.0000   208.0000 </r>
       <r>   -13.0001    10.4589   209.0238 </r>
       <r>   -12.9022    14.4360   211.4131 </r>
       <r>   -12.8043    39.8098   215.5303 </r>
       <r>   -12.7064     0.0000   216.0000 </r>
       <r>   -12.6085     0.0000   216.0000 </r>
       <r>   -12.5106     0.0058   216.0006 </r>
       <r>   -12.4128   122.4026   227.9818 </r>
       <r>   -12.3149     0.0000   228.0000 </r>
       <r>   -12.2170     0.0000   228.0000 </r>
       <r>   -12.1191     0.0160   228.0016 </r>
       <r>   -12.0212   107.8535   238.5587 </r>
       <r>   -11.9233    52.3925   247.1287 </r>
       <r>   -11.8255    45.4453   252.4484 </r>
       <r>   -11.7276    12.9564   254.0019 </r>
       <r>   -11.6297    14.3383   255.5708 </r>
       <r>   -11.5318    42.8989   260.0000 </r>
       <r>   -11.4339     0.0019   260.0002 </r>
       <r>   -11.3360    71.0233   266.9522 </r>
       <r>   -11.2382    60.6082   273.9998 </r>
       <r>   -11.1403    10.5874   275.0363 </r>
       <r>   -11.0424     5.0355   275.6265 </r>
       <r>   -10.9445    26.0044   278.2788 </r>
       <r>   -10.8466    16.0047   280.0000 </r>
       <r>   -10.7487    14.1906   281.3890 </r>
       <r>   -10.6509    10.1959   284.0000 </r>
       <r>   -10.5530     0.0000   284.0000 </r>
       <r>   -10.4551    38.4752   287.7661 </r>
       <r>   -10.3572     8.9365   288.8747 </r>
       <r>   -10.2593    43.6220   294.2774 </r>
       <r>   -10.1614     1.2488   296.1222 </r>
       <r>   -10.0635   102.1523   308.0000 </r>
       <r>    -9.9657    40.8646   312.0000 </r>
       <r>    -9.8678    62.1664   318.0851 </r>
       <r>    -9.7699   174.5206   336.5172 </r>
       <r>    -9.6720   113.0351   349.3717 </r>
       <r>    -9.5741    61.0007   355.9710 </r>
       <r>    -9.4762     0.0000   356.0000 </r>
       <r>    -9.3784    60.0024   361.8733 </r>
       <r>    -9.2805    18.3606   364.0000 </r>
       <r>    -9.1826     0.0000   364.0000 </r>
       <r>    -9.0847     0.0000   364.0000 </r>
       <r>    -8.9868     0.0000   364.0000 </r>
       <r>    -8.8889    99.2790   373.7178 </r>
       <r>    -8.7911    38.4159   380.0000 </r>
       <r>    -8.6932     0.0000   380.0000 </r>
       <r>    -8.5953     0.0000   380.0000 </r>
       <r>    -8.4974     0.0000   380.0000 </r>
       <r>    -8.3995     0.0000   380.0000 </r>
       <r>    -8.3016     0.0000   380.0000 </r>
       <r>    -8.2038     0.0000   380.0000 </r>
       <r>    -8.1059    10.7475   381.0520 </r>
       <r>    -8.0080    49.9296   390.0883 </r>
       <r>    -7.9101     6.4597   392.0000 </r>
       <r>    -7.8122   122.9595   404.0358 </r>
       <r>    -7.7143    42.1345   410.6914 </r>
       <r>    -7.6164    37.1051   415.3325 </r>
       <r>    -7.5186     0.0000   416.0000 </r>
       <r>    -7.4207     0.0000   416.0000 </r>
       <r>    -7.3228     0.0000   416.0000 </r>
       <r>    -7.2249     0.0000   416.0000 </r>
       <r>    -7.1270     0.0000   416.0000 </r>
       <r>    -7.0291     0.0000   416.0000 </r>
       <r>    -6.9313    20.4572   418.0024 </r>
       <r>    -6.8334    99.3218   429.1586 </r>
       <r>    -6.7355    60.5172   437.9237 </r>
       <r>    -6.6376    61.2733   443.9996 </r>
       <r>    -6.5397    40.8943   448.0029 </r>
       <r>    -6.4418    61.2674   454.0000 </r>
       <r>    -6.3440    68.1270   460.6685 </r>
       <r>    -6.2461    61.2975   468.0000 </r>
       <r>    -6.1482   120.3499   479.7804 </r>
       <r>    -6.0503     0.0000   480.0000 </r>
       <r>    -5.9524     0.0000   480.0000 </r>
       <r>    -5.8545     0.0000   480.0000 </r>
       <r>    -5.7567     0.0000   480.0000 </r>
       <r>    -5.6588     0.0000   480.0000 </r>
       <r>    -5.5609     0.0000   480.0000 </r>
       <r>    -5.4630     0.0000   480.0000 </r>
       <r>    -5.3651     0.0000   480.0000 </r>
       <r>    -5.2672     0.0000   480.0000 </r>
       <r>    -5.1693     0.0000   480.0000 </r>
       <r>    -5.0715   122.5941   492.0000 </r>
       <r>    -4.9736     0.0000   492.0000 </r>
       <r>    -4.8757     0.0000   492.0000 </r>
       <r>    -4.7778     0.0000   492.0000 </r>
       <r>    -4.6799     0.0000   492.0000 </r>
       <r>    -4.5820     0.0000   492.0000 </r>
       <r>    -4.4842     0.0000   492.0000 </r>
       <r>    -4.3863     0.0000   492.0000 </r>
       <r>    -4.2884     0.0000   492.0000 </r>
       <r>    -4.1905     0.0000   492.0000 </r>
       <r>    -4.0926     0.0000   492.0000 </r>
       <r>    -3.9947     0.0000   492.0000 </r>
       <r>    -3.8969     0.0000   492.0000 </r>
       <r>    -3.7990     0.0000   492.0000 </r>
       <r>    -3.7011     0.0000   492.0000 </r>
       <r>    -3.6032     0.0000   492.0000 </r>
       <r>    -3.5053     0.0000   492.0000 </r>
       <r>    -3.4074     0.0000   492.0000 </r>
       <r>    -3.3096    19.6266   493.9211 </r>
       <r>    -3.2117    61.2970   504.0000 </r>
       <r>    -3.1138     0.0000   504.0000 </r>
       <r>    -3.0159     0.0000   504.0000 </r>
       <r>    -2.9180     0.0000   504.0000 </r>
       <r>    -2.8201    10.0501   504.9837 </r>
       <r>    -2.7222    82.9402   514.1238 </r>
       <r>    -2.6244     0.0000   516.0000 </r>
       <r>    -2.5265     0.0000   516.0000 </r>
       <r>    -2.4286     0.0000   516.0000 </r>
       <r>    -2.3307     0.0000   516.0000 </r>
       <r>    -2.2328     0.0000   516.0000 </r>
       <r>    -2.1349     0.0000   516.0000 </r>
       <r>    -2.0371    20.6426   518.0206 </r>
       <r>    -1.9392    59.6630   525.8430 </r>
       <r>    -1.8413    18.0444   527.9998 </r>
       <r>    -1.7434    40.9075   532.0042 </r>
       <r>    -1.6455    18.5053   534.0475 </r>
       <r>    -1.5476    30.6037   539.1625 </r>
       <r>    -1.4498    38.8453   543.6364 </r>
       <r>    -1.3519     0.0000   544.0000 </r>
       <r>    -1.2540     0.0000   544.0000 </r>
       <r>    -1.1561     0.4421   544.0433 </r>
       <r>    -1.0582    27.4287   550.6848 </r>
       <r>    -0.9603     3.7456   554.3666 </r>
       <r>    -0.8625     0.0000   556.0000 </r>
       <r>    -0.7646     0.0000   556.0000 </r>
       <r>    -0.6667     0.0000   556.0000 </r>
       <r>    -0.5688     0.0000   556.0000 </r>
       <r>    -0.4709    53.8696   561.2730 </r>
       <r>    -0.3730    49.7728   566.8720 </r>
       <r>    -0.2751    47.6929   574.3053 </r>
       <r>    -0.1773     8.3158   576.0142 </r>
       <r>    -0.0794    11.2310   578.0000 </r>
       <r>     0.0185    42.2561   582.1362 </r>
       <r>     0.1164    79.1319   592.6817 </r>
       <r>     0.2143    40.2436   598.4397 </r>
       <r>     0.3122    59.3457   605.5093 </r>
       <r>     0.4100    13.7025   608.0421 </r>
       <r>     0.5079     8.5060   610.0000 </r>
       <r>     0.6058    80.2936   617.8595 </r>
       <r>     0.7037    85.8296   627.7018 </r>
       <r>     0.8016    82.6428   638.2239 </r>
       <r>     0.8995    13.2680   640.0000 </r>
       <r>     0.9973     0.0000   640.0000 </r>
       <r>     1.0952     0.0000   640.0000 </r>
       <r>     1.1931     0.0000   640.0000 </r>
       <r>     1.2910     0.0000   640.0000 </r>
       <r>     1.3889     0.0000   640.0000 </r>
       <r>     1.4868     0.0000   640.0000 </r>
       <r>     1.5846     0.0000   640.0000 </r>
       <r>     1.6825     0.0000   640.0000 </r>
       <r>     1.7804     0.0000   640.0000 </r>
       <r>     1.8783     0.0000   640.0000 </r>
       <r>     1.9762     0.0000   640.0000 </r>
       <r>     2.0741     0.0000   640.0000 </r>
       <r>     2.1720     0.0000   640.0000 </r>
      </set>
     </set>
    </array>
   </total>
  </dos>
 </calculation>
 <structure name="finalpos" >
  <crystal>
   <varray name="basis" >
    <v>      34.00460635       0.00590042       0.00000000 </v>
    <v>     -16.98669735      29.43629397       0.00000000 </v>
    <v>       0.00000000       0.00000000      20.00000000 </v>
   </varray>
   <i name="volume">  20021.39634882 </i>
   <varray name="rec_basis" >
    <v>       0.02940484       0.01696854       0.00000000 </v>
    <v>      -0.00000589       0.03396827       0.00000000 </v>
    <v>       0.00000000       0.00000000       0.05000000 </v>
   </varray>
  </crystal>
  <varray name="positions" >
   <v>       0.84345083       0.15639245       0.43648709 </v>
   <v>       0.87766504       0.12146117       0.48861136 </v>
   <v>       0.90216947       0.09703620       0.48837693 </v>
   <v>       0.93708147       0.06303619       0.43548888 </v>
   <v>       0.84327788       0.69078440       0.43674292 </v>
   <v>       0.87718167       0.75993334       0.48882275 </v>
   <v>       0.90169444       0.80885371       0.48849475 </v>
   <v>       0.93689641       0.87768450       0.43543597 </v>
   <v>       0.30763672       0.15520438       0.43733378 </v>
   <v>       0.23841190       0.12072163       0.48903969 </v>
   <v>       0.18953372       0.09619526       0.48834624 </v>
   <v>       0.12090850       0.06141163       0.43482759 </v>
   <v>       0.84038747       0.46142051       0.43266381 </v>
   <v>       0.83022547       0.49683601       0.43025936 </v>
   <v>       0.82673416       0.31484272       0.48953639 </v>
   <v>       0.83028738       0.33741487       0.43022423 </v>
   <v>       0.84040695       0.38297567       0.43264939 </v>
   <v>       0.53626417       0.38307424       0.43354066 </v>
   <v>       0.50098833       0.33746330       0.43098960 </v>
   <v>       0.68268979       0.51595695       0.49057553 </v>
   <v>       0.66001457       0.49714241       0.43124849 </v>
   <v>       0.61450789       0.46165348       0.43367180 </v>
   <v>       0.61481884       0.15640839       0.43365461 </v>
   <v>       0.66039212       0.16665930       0.43122090 </v>
   <v>       0.48228980       0.17067462       0.49034446 </v>
   <v>       0.50130237       0.16703345       0.43107894 </v>
   <v>       0.53656631       0.15667769       0.43357003 </v>
   <v>       0.82662717       0.51581064       0.48958974 </v>
   <v>       0.48210103       0.31472810       0.49024741 </v>
   <v>       0.68303963       0.17044764       0.49053778 </v>
   <v>       0.97400191       0.02470177       0.49612728 </v>
   <v>       0.97383324       0.95300057       0.49593669 </v>
   <v>       0.95034886       0.97710962       0.49643102 </v>
   <v>       0.94884725       0.05005882       0.49661278 </v>
   <v>       0.94851624       0.90248935       0.49649797 </v>
   <v>       0.02139408       0.97690713       0.49503699 </v>
   <v>       0.04546852       0.02449592       0.49516176 </v>
   <v>       0.02156308       0.04818328       0.49536234 </v>
   <v>       0.80514256       0.26448823       0.49166061 </v>
   <v>       0.75760317       0.23996009       0.48973258 </v>
   <v>       0.73340809       0.19240249       0.49241394 </v>
   <v>       0.75749155       0.16903033       0.49639930 </v>
   <v>       0.80515039       0.19306897       0.49725085 </v>
   <v>       0.82885815       0.24073940       0.49544528 </v>
   <v>       0.73306010       0.54458896       0.49246012 </v>
   <v>       0.75739895       0.52136716       0.48983091 </v>
   <v>       0.80494163       0.54449112       0.49173312 </v>
   <v>       0.82853313       0.59195144       0.49553950 </v>
   <v>       0.80469856       0.61579479       0.49741926 </v>
   <v>       0.75703026       0.59205179       0.49647583 </v>
   <v>       0.45366930       0.19243862       0.49232794 </v>
   <v>       0.47677949       0.23999433       0.48967745 </v>
   <v>       0.45357798       0.26435566       0.49224413 </v>
   <v>       0.40616740       0.24044043       0.49666317 </v>
   <v>       0.38242407       0.19276278       0.49821904 </v>
   <v>       0.40624385       0.16889545       0.49668461 </v>
   <v>       0.83055622       0.16795715       0.49789361 </v>
   <v>       0.83003316       0.66632126       0.49813197 </v>
   <v>       0.33192355       0.16751053       0.49888698 </v>
   <v>       0.86664765       0.13128682       0.55275572 </v>
   <v>       0.84251699       0.15499225       0.55654522 </v>
   <v>       0.93601538       0.06188818       0.55553830 </v>
   <v>       0.91221405       0.08593330       0.55229997 </v>
   <v>       0.86578775       0.73911105       0.55294756 </v>
   <v>       0.84168060       0.69127262       0.55676044 </v>
   <v>       0.93538957       0.87790422       0.55549056 </v>
   <v>       0.91147164       0.83005323       0.55236486 </v>
   <v>       0.25904009       0.13131838       0.55332731 </v>
   <v>       0.30684878       0.15522365       0.55740523 </v>
   <v>       0.09594662       0.04962284       0.49573642 </v>
   <v>       0.12034495       0.06231957       0.55489250 </v>
   <v>       0.16816205       0.08604312       0.55207662 </v>
   <v>       0.83823400       0.50147209       0.54965541 </v>
   <v>       0.84628643       0.44633827       0.49620775 </v>
   <v>       0.84630693       0.40394375       0.49620223 </v>
   <v>       0.83832916       0.34077503       0.54961428 </v>
   <v>       0.49640313       0.34052550       0.55044550 </v>
   <v>       0.55138253       0.40386280       0.49718421 </v>
   <v>       0.59368755       0.44631776       0.49724396 </v>
   <v>       0.65686052       0.50137933       0.55071860 </v>
   <v>       0.65712375       0.15877192       0.55062734 </v>
   <v>       0.59391505       0.15062882       0.49721802 </v>
   <v>       0.55160314       0.15077910       0.49716251 </v>
   <v>       0.49654652       0.15902379       0.55045279 </v>
   <v>       0.86600582       0.13408769       0.43109737 </v>
   <v>       0.91467361       0.08552020       0.43064141 </v>
   <v>       0.86586459       0.73563844       0.43136084 </v>
   <v>       0.91443012       0.83278395       0.43069534 </v>
   <v>       0.26282911       0.13279377       0.43169381 </v>
   <v>       0.16580174       0.08378009       0.43036713 </v>
   <v>       0.84056088       0.40332993       0.37225366 </v>
   <v>       0.84055872       0.44123683       0.37225829 </v>
   <v>       0.59409110       0.44163090       0.37320493 </v>
   <v>       0.55629445       0.40365506       0.37313996 </v>
   <v>       0.55663373       0.15629084       0.37314093 </v>
   <v>       0.59444594       0.15613068       0.37321102 </v>
   <v>       0.90011834       0.09726209       0.61266841 </v>
   <v>       0.87817703       0.11909557       0.61286774 </v>
   <v>       0.89896203       0.80665280       0.61275004 </v>
   <v>       0.87692148       0.76287689       0.61302402 </v>
   <v>       0.19134096       0.09792792       0.61262493 </v>
   <v>       0.23509692       0.11965559       0.61325421 </v>
   <v>       0.84752243       0.46801849       0.55367501 </v>
   <v>       0.84757689       0.38350200       0.55366308 </v>
   <v>       0.52982555       0.38323534       0.55462915 </v>
   <v>       0.61419442       0.46782926       0.55475812 </v>
   <v>       0.61438361       0.14941966       0.55468944 </v>
   <v>       0.52996774       0.14970830       0.55458820 </v>
   <v>       0.73887400       0.48435564       0.48673064 </v>
   <v>       0.51375077       0.25851937       0.48613285 </v>
   <v>       0.94691740       0.05405710       0.38826021 </v>
   <v>       0.94688837       0.89644633       0.38817020 </v>
   <v>       0.94370711       0.05328096       0.60454165 </v>
   <v>       0.94297105       0.89429431       0.60442499 </v>
   <v>       0.03985685       0.95829975       0.49493565 </v>
   <v>       0.04015760       0.08524974       0.49542532 </v>
   <v>       0.91330311       0.95865191       0.49728486 </v>
   <v>       0.73930686       0.13197768       0.49786049 </v>
   <v>       0.86589809       0.25919568       0.49623553 </v>
   <v>       0.73897745       0.25834549       0.48657021 </v>
   <v>       0.86557715       0.61062747       0.49630466 </v>
   <v>       0.73875485       0.61083173       0.49788504 </v>
   <v>       0.38743804       0.25876737       0.49795933 </v>
   <v>       0.38755158       0.13184035       0.49798278 </v>
   <v>       0.83430212       0.16632977       0.38949262 </v>
   <v>       0.83442005       0.67172039       0.38974520 </v>
   <v>       0.32683118       0.16470331       0.39044333 </v>
   <v>       0.10228063       0.05162072       0.38744749 </v>
   <v>       0.82297523       0.50661358       0.38182814 </v>
   <v>       0.82303977       0.32040779       0.38178411 </v>
   <v>       0.49123814       0.32054722       0.38248325 </v>
   <v>       0.67692213       0.50707868       0.38275532 </v>
   <v>       0.67736736       0.17386700       0.38276183 </v>
   <v>       0.49164471       0.17434777       0.38259572 </v>
   <v>       0.83398452       0.16252016       0.60571579 </v>
   <v>       0.83297266       0.67525960       0.60595877 </v>
   <v>       0.32274893       0.16339685       0.60668497 </v>
   <v>       0.10384137       0.05455341       0.60373920 </v>
   <v>       0.83831723       0.51783271       0.59686006 </v>
   <v>       0.83842792       0.32449509       0.59681319 </v>
   <v>       0.48004396       0.32414738       0.59760363 </v>
   <v>       0.67315753       0.51760396       0.59797181 </v>
   <v>       0.67341725       0.15869593       0.59781919 </v>
   <v>       0.48015463       0.15893783       0.59761999 </v>
  </varray>
 </structure>
</modeling>
