<?xml version="1.0" encoding="ISO-8859-1"?>
<modeling>
 <generator>
  <i name="program" type="string">vasp </i>
  <i name="version" type="string">5.4.4.18Apr17-6-g9f103f2a35  </i>
  <i name="subversion" type="string">(build Jun 07 2020 16:50:00) complex            parallel </i>
  <i name="platform" type="string">LinuxIFC </i>
  <i name="date" type="string">2023 02 16 </i>
  <i name="time" type="string">06:15:22 </i>
 </generator>
 <incar>
  <i type="string" name="SYSTEM">Simulation for cell shape cell volume r</i>
  <i type="int" name="ISTART">     1</i>
  <i type="string" name="PREC">high</i>
  <i type="string" name="ALGO">48</i>
  <i type="int" name="ICHARG">    11</i>
  <i type="int" name="NELM">   200</i>
  <i type="int" name="IBRION">    -1</i>
  <i name="EDIFF">      0.00001000</i>
  <i name="EDIFFG">     -0.01000000</i>
  <i type="int" name="NSW">     0</i>
  <i type="int" name="ISIF">     2</i>
  <i name="ENCUT">    500.00000000</i>
  <i name="POTIM">      0.30000000</i>
  <i type="string" name="LREAL">A</i>
  <i type="int" name="ISMEAR">     0</i>
  <i name="SIGMA">      0.01000000</i>
  <i type="int" name="NWRITE">     0</i>
  <i type="logical" name="LWAVE"> F  </i>
  <i type="logical" name="LCHARG"> F  </i>
  <v type="int" name="KPOINT_BSE">    -1     0     0     0</v>
  <i type="int" name="NELM">   200</i>
  <i type="string" name="GGA">PE</i>
 </incar>
 <structure name="primitive_cell" >
  <crystal>
   <varray name="basis" >
    <v>      14.34011794      -0.03033321       0.00000000 </v>
    <v>      -0.05072026      24.81783688       0.00000000 </v>
    <v>       0.00000000       0.00000000      20.00000000 </v>
   </varray>
   <i name="volume">   7117.78338869 </i>
   <varray name="rec_basis" >
    <v>       0.06973473       0.00014252       0.00000000 </v>
    <v>       0.00008523       0.04029377       0.00000000 </v>
    <v>       0.00000000       0.00000000       0.05000000 </v>
   </varray>
  </crystal>
  <varray name="positions" >
   <v>       0.17012639      -0.23369038       0.49590665 </v>
   <v>       0.25041080      -0.20785410       0.49695237 </v>
   <v>       0.17177845      -0.28523565       0.47569817 </v>
   <v>       0.24556464      -0.15277208      -0.47287482 </v>
   <v>       0.25595618      -0.30981481       0.45707749 </v>
   <v>       0.33514723      -0.23063376       0.47504509 </v>
   <v>       0.08182604      -0.31508380       0.47391530 </v>
   <v>       0.00346127      -0.28613767       0.47417525 </v>
   <v>       0.33580019      -0.28225464       0.45540781 </v>
   <v>       0.19842709      -0.11906765       0.49781052 </v>
   <v>       0.28887289      -0.14713679      -0.41974675 </v>
   <v>       0.25800163      -0.35219067       0.44268723 </v>
   <v>       0.08616744      -0.36926333       0.47250818 </v>
   <v>       0.42510565      -0.20086678       0.47077642 </v>
   <v>      -0.07535205      -0.31533792       0.47360580 </v>
   <v>       0.42127411      -0.14704439       0.46394800 </v>
   <v>       0.00280147      -0.39411489       0.47536343 </v>
   <v>      -0.16027472      -0.23172077       0.46918213 </v>
   <v>      -0.49707384      -0.23036490       0.47353562 </v>
   <v>      -0.08011239      -0.36946510       0.47573583 </v>
   <v>      -0.16499466      -0.28564328       0.47119398 </v>
   <v>       0.28192174      -0.04335154       0.39223299 </v>
   <v>      -0.49525777      -0.12284156       0.45912651 </v>
   <v>       0.36303475      -0.05616088       0.38158228 </v>
   <v>       0.39240235      -0.08701322       0.33759310 </v>
   <v>       0.14104573      -0.46312656       0.43307547 </v>
   <v>      -0.23985312      -0.20546485       0.46794490 </v>
   <v>       0.00426326      -0.45392455       0.47887033 </v>
   <v>      -0.41809150      -0.20177193       0.46694268 </v>
   <v>      -0.22616499      -0.14567681       0.46734781 </v>
   <v>      -0.22495419      -0.12362469      -0.47750572 </v>
   <v>      -0.21316430      -0.12486089       0.41226656 </v>
   <v>      -0.25169523      -0.31245610       0.47142286 </v>
   <v>      -0.41313841      -0.14814822       0.45946014 </v>
   <v>       0.08012673      -0.48348514       0.45398435 </v>
   <v>       0.43712028      -0.03152448       0.42477365 </v>
   <v>      -0.49276009      -0.06307681       0.45475652 </v>
   <v>      -0.25559903      -0.35636069       0.47304294 </v>
   <v>      -0.06862803      -0.47899793      -0.49259952 </v>
   <v>      -0.32804734      -0.23122635       0.46823706 </v>
   <v>      -0.33153422      -0.28524993       0.46977838 </v>
   <v>       0.43502254       0.02134227       0.42847696 </v>
   <v>      -0.41963699      -0.03840564       0.48326538 </v>
   <v>       0.07997063       0.46282357       0.45396774 </v>
   <v>      -0.06504277       0.46806558      -0.48964518 </v>
   <v>      -0.49239857       0.04559672       0.45840547 </v>
   <v>       0.00728869       0.43726978       0.48188075 </v>
   <v>      -0.41740196       0.01528882       0.48331746 </v>
   <v>      -0.14123762       0.44262412      -0.44926887 </v>
   <v>      -0.35570059       0.03480623      -0.49569661 </v>
   <v>      -0.22197038       0.45281732      -0.46507407 </v>
   <v>      -0.49422909       0.10534671       0.46318372 </v>
   <v>       0.42243209       0.12941798       0.46237006 </v>
   <v>      -0.11445765       0.41410838      -0.40221540 </v>
   <v>       0.00691900       0.37738186       0.47846706 </v>
   <v>       0.06460618       0.16111776      -0.47574647 </v>
   <v>       0.06595689       0.16081762       0.41369021 </v>
   <v>       0.09435698       0.17494751       0.46905628 </v>
   <v>       0.08964793       0.35274581       0.47954455 </v>
   <v>       0.25703469       0.18420994       0.46740735 </v>
   <v>      -0.07671656       0.35310193       0.47327320 </v>
   <v>      -0.41130062       0.13067362       0.46744601 </v>
   <v>       0.42591690       0.18334672       0.46577689 </v>
   <v>       0.17807493       0.21113146       0.46978005 </v>
   <v>      -0.24041990       0.14887459      -0.49834349 </v>
   <v>       0.33617992       0.21309591       0.46926850 </v>
   <v>       0.08461666       0.29890243       0.47351521 </v>
   <v>       0.25326880       0.29623526       0.47622636 </v>
   <v>      -0.30300667       0.37803725       0.42422803 </v>
   <v>      -0.41643817       0.18475306       0.46626134 </v>
   <v>      -0.19790705       0.34715480       0.35312066 </v>
   <v>      -0.49556229       0.21325645       0.46588430 </v>
   <v>      -0.07295632       0.29932506       0.46785034 </v>
   <v>      -0.24240528       0.19073834       0.48510477 </v>
   <v>       0.39802844       0.29322638       0.47717048 </v>
   <v>      -0.24943897       0.34370458       0.40266617 </v>
   <v>      -0.16262015       0.21844023       0.48624651 </v>
   <v>       0.17334152       0.26799843       0.47336724 </v>
   <v>       0.00551093       0.27036352       0.46712850 </v>
   <v>       0.33371297       0.26967488       0.47456717 </v>
   <v>      -0.16257351       0.26914171       0.46330467 </v>
   <v>      -0.32632964       0.21464479       0.46423769 </v>
   <v>      -0.24653654       0.29076532       0.43832427 </v>
   <v>      -0.32713582       0.26521138       0.44046167 </v>
  </varray>
 </structure>
 <varray name="primitive_index" >
  <v type="int" >        1 </v>
  <v type="int" >       67 </v>
  <v type="int" >       49 </v>
  <v type="int" >       13 </v>
  <v type="int" >       50 </v>
  <v type="int" >       66 </v>
  <v type="int" >       53 </v>
  <v type="int" >        4 </v>
  <v type="int" >       16 </v>
  <v type="int" >       36 </v>
  <v type="int" >       35 </v>
  <v type="int" >       43 </v>
  <v type="int" >        3 </v>
  <v type="int" >       58 </v>
  <v type="int" >       56 </v>
  <v type="int" >        6 </v>
  <v type="int" >       55 </v>
  <v type="int" >        9 </v>
  <v type="int" >        7 </v>
  <v type="int" >        5 </v>
  <v type="int" >       61 </v>
  <v type="int" >       33 </v>
  <v type="int" >       57 </v>
  <v type="int" >       12 </v>
  <v type="int" >       34 </v>
  <v type="int" >       46 </v>
  <v type="int" >       62 </v>
  <v type="int" >       64 </v>
  <v type="int" >       59 </v>
  <v type="int" >       10 </v>
  <v type="int" >       31 </v>
  <v type="int" >       32 </v>
  <v type="int" >       68 </v>
  <v type="int" >        8 </v>
  <v type="int" >       69 </v>
  <v type="int" >       65 </v>
  <v type="int" >       63 </v>
  <v type="int" >       45 </v>
  <v type="int" >       11 </v>
  <v type="int" >       60 </v>
  <v type="int" >       14 </v>
  <v type="int" >       25 </v>
  <v type="int" >       15 </v>
  <v type="int" >       29 </v>
  <v type="int" >       80 </v>
  <v type="int" >       79 </v>
  <v type="int" >       78 </v>
  <v type="int" >       84 </v>
  <v type="int" >       26 </v>
  <v type="int" >       48 </v>
  <v type="int" >       40 </v>
  <v type="int" >       70 </v>
  <v type="int" >       19 </v>
  <v type="int" >       39 </v>
  <v type="int" >       72 </v>
  <v type="int" >       37 </v>
  <v type="int" >       38 </v>
  <v type="int" >       24 </v>
  <v type="int" >       22 </v>
  <v type="int" >       23 </v>
  <v type="int" >       20 </v>
  <v type="int" >       17 </v>
  <v type="int" >       71 </v>
  <v type="int" >       77 </v>
  <v type="int" >       44 </v>
  <v type="int" >       76 </v>
  <v type="int" >       74 </v>
  <v type="int" >       28 </v>
  <v type="int" >       41 </v>
  <v type="int" >       54 </v>
  <v type="int" >       42 </v>
  <v type="int" >       18 </v>
  <v type="int" >       73 </v>
  <v type="int" >       52 </v>
  <v type="int" >       47 </v>
  <v type="int" >       27 </v>
  <v type="int" >       30 </v>
  <v type="int" >       75 </v>
  <v type="int" >       21 </v>
  <v type="int" >       83 </v>
  <v type="int" >       81 </v>
  <v type="int" >       51 </v>
  <v type="int" >       82 </v>
  <v type="int" >        2 </v>
 </varray>
 <kpoints>
  <generation param="listgenerated">
   <i name="divisions" type="int">      20 </i>
   <v>       0.00000000       0.00000000       0.00000000 </v>
   <v>       0.50000000      -0.50000000       0.00000000 </v>
   <v>       0.50119293      -0.49640972       0.00000000 </v>
   <v>       0.50000000       0.00000000       0.00000000 </v>
   <v>       0.49880707       0.49640972       0.00000000 </v>
   <v>       0.00000000       0.50000000       0.00000000 </v>
   <v>       0.00000000       0.00000000       0.00000000 </v>
  </generation>
  <varray name="kpointlist" >
   <v>       0.00000000       0.00000000       0.00000000 </v>
   <v>       0.02631579      -0.02631579       0.00000000 </v>
   <v>       0.05263158      -0.05263158       0.00000000 </v>
   <v>       0.07894737      -0.07894737       0.00000000 </v>
   <v>       0.10526316      -0.10526316       0.00000000 </v>
   <v>       0.13157895      -0.13157895       0.00000000 </v>
   <v>       0.15789474      -0.15789474       0.00000000 </v>
   <v>       0.18421053      -0.18421053       0.00000000 </v>
   <v>       0.21052632      -0.21052632       0.00000000 </v>
   <v>       0.23684211      -0.23684211       0.00000000 </v>
   <v>       0.26315789      -0.26315789       0.00000000 </v>
   <v>       0.28947368      -0.28947368       0.00000000 </v>
   <v>       0.31578947      -0.31578947       0.00000000 </v>
   <v>       0.34210526      -0.34210526       0.00000000 </v>
   <v>       0.36842105      -0.36842105       0.00000000 </v>
   <v>       0.39473684      -0.39473684       0.00000000 </v>
   <v>       0.42105263      -0.42105263       0.00000000 </v>
   <v>       0.44736842      -0.44736842       0.00000000 </v>
   <v>       0.47368421      -0.47368421       0.00000000 </v>
   <v>       0.50000000      -0.50000000       0.00000000 </v>
   <v>       0.50000000      -0.50000000       0.00000000 </v>
   <v>       0.50006279      -0.49981104       0.00000000 </v>
   <v>       0.50012557      -0.49962208       0.00000000 </v>
   <v>       0.50018836      -0.49943311       0.00000000 </v>
   <v>       0.50025114      -0.49924415       0.00000000 </v>
   <v>       0.50031393      -0.49905519       0.00000000 </v>
   <v>       0.50037671      -0.49886623       0.00000000 </v>
   <v>       0.50043950      -0.49867727       0.00000000 </v>
   <v>       0.50050228      -0.49848831       0.00000000 </v>
   <v>       0.50056507      -0.49829934       0.00000000 </v>
   <v>       0.50062786      -0.49811038       0.00000000 </v>
   <v>       0.50069064      -0.49792142       0.00000000 </v>
   <v>       0.50075343      -0.49773246       0.00000000 </v>
   <v>       0.50081621      -0.49754350       0.00000000 </v>
   <v>       0.50087900      -0.49735453       0.00000000 </v>
   <v>       0.50094178      -0.49716557       0.00000000 </v>
   <v>       0.50100457      -0.49697661       0.00000000 </v>
   <v>       0.50106735      -0.49678765       0.00000000 </v>
   <v>       0.50113014      -0.49659869       0.00000000 </v>
   <v>       0.50119293      -0.49640972       0.00000000 </v>
   <v>       0.50119293      -0.49640972       0.00000000 </v>
   <v>       0.50113014      -0.47028290       0.00000000 </v>
   <v>       0.50106735      -0.44415607       0.00000000 </v>
   <v>       0.50100457      -0.41802924       0.00000000 </v>
   <v>       0.50094178      -0.39190241       0.00000000 </v>
   <v>       0.50087900      -0.36577559       0.00000000 </v>
   <v>       0.50081621      -0.33964876       0.00000000 </v>
   <v>       0.50075343      -0.31352193       0.00000000 </v>
   <v>       0.50069064      -0.28739510       0.00000000 </v>
   <v>       0.50062786      -0.26126828       0.00000000 </v>
   <v>       0.50056507      -0.23514145       0.00000000 </v>
   <v>       0.50050228      -0.20901462       0.00000000 </v>
   <v>       0.50043950      -0.18288779       0.00000000 </v>
   <v>       0.50037671      -0.15676097       0.00000000 </v>
   <v>       0.50031393      -0.13063414       0.00000000 </v>
   <v>       0.50025114      -0.10450731       0.00000000 </v>
   <v>       0.50018836      -0.07838048       0.00000000 </v>
   <v>       0.50012557      -0.05225366       0.00000000 </v>
   <v>       0.50006279      -0.02612683       0.00000000 </v>
   <v>       0.50000000       0.00000000       0.00000000 </v>
   <v>       0.50000000       0.00000000       0.00000000 </v>
   <v>       0.49993721       0.02612683       0.00000000 </v>
   <v>       0.49987443       0.05225366       0.00000000 </v>
   <v>       0.49981164       0.07838048       0.00000000 </v>
   <v>       0.49974886       0.10450731       0.00000000 </v>
   <v>       0.49968607       0.13063414       0.00000000 </v>
   <v>       0.49962329       0.15676097       0.00000000 </v>
   <v>       0.49956050       0.18288779       0.00000000 </v>
   <v>       0.49949772       0.20901462       0.00000000 </v>
   <v>       0.49943493       0.23514145       0.00000000 </v>
   <v>       0.49937214       0.26126828       0.00000000 </v>
   <v>       0.49930936       0.28739510       0.00000000 </v>
   <v>       0.49924657       0.31352193       0.00000000 </v>
   <v>       0.49918379       0.33964876       0.00000000 </v>
   <v>       0.49912100       0.36577559       0.00000000 </v>
   <v>       0.49905822       0.39190241       0.00000000 </v>
   <v>       0.49899543       0.41802924       0.00000000 </v>
   <v>       0.49893265       0.44415607       0.00000000 </v>
   <v>       0.49886986       0.47028290       0.00000000 </v>
   <v>       0.49880707       0.49640972       0.00000000 </v>
   <v>       0.49880707       0.49640972       0.00000000 </v>
   <v>       0.47255407       0.49659869       0.00000000 </v>
   <v>       0.44630107       0.49678765       0.00000000 </v>
   <v>       0.42004806       0.49697661       0.00000000 </v>
   <v>       0.39379506       0.49716557       0.00000000 </v>
   <v>       0.36754206       0.49735453       0.00000000 </v>
   <v>       0.34128905       0.49754350       0.00000000 </v>
   <v>       0.31503605       0.49773246       0.00000000 </v>
   <v>       0.28878304       0.49792142       0.00000000 </v>
   <v>       0.26253004       0.49811038       0.00000000 </v>
   <v>       0.23627704       0.49829934       0.00000000 </v>
   <v>       0.21002403       0.49848831       0.00000000 </v>
   <v>       0.18377103       0.49867727       0.00000000 </v>
   <v>       0.15751802       0.49886623       0.00000000 </v>
   <v>       0.13126502       0.49905519       0.00000000 </v>
   <v>       0.10501202       0.49924415       0.00000000 </v>
   <v>       0.07875901       0.49943311       0.00000000 </v>
   <v>       0.05250601       0.49962208       0.00000000 </v>
   <v>       0.02625300       0.49981104       0.00000000 </v>
   <v>       0.00000000       0.50000000       0.00000000 </v>
   <v>       0.00000000       0.50000000       0.00000000 </v>
   <v>       0.00000000       0.47368421       0.00000000 </v>
   <v>       0.00000000       0.44736842       0.00000000 </v>
   <v>       0.00000000       0.42105263       0.00000000 </v>
   <v>       0.00000000       0.39473684       0.00000000 </v>
   <v>       0.00000000       0.36842105       0.00000000 </v>
   <v>       0.00000000       0.34210526       0.00000000 </v>
   <v>       0.00000000       0.31578947       0.00000000 </v>
   <v>       0.00000000       0.28947368       0.00000000 </v>
   <v>       0.00000000       0.26315789       0.00000000 </v>
   <v>       0.00000000       0.23684211       0.00000000 </v>
   <v>       0.00000000       0.21052632       0.00000000 </v>
   <v>       0.00000000       0.18421053       0.00000000 </v>
   <v>       0.00000000       0.15789474       0.00000000 </v>
   <v>       0.00000000       0.13157895       0.00000000 </v>
   <v>       0.00000000       0.10526316       0.00000000 </v>
   <v>       0.00000000       0.07894737       0.00000000 </v>
   <v>       0.00000000       0.05263158       0.00000000 </v>
   <v>       0.00000000       0.02631579       0.00000000 </v>
   <v>       0.00000000       0.00000000       0.00000000 </v>
  </varray>
  <varray name="weights" >
   <v>       0.00833333 </v>
   <v>       0.00833333 </v>
   <v>       0.00833333 </v>
   <v>       0.00833333 </v>
   <v>       0.00833333 </v>
   <v>       0.00833333 </v>
   <v>       0.00833333 </v>
   <v>       0.00833333 </v>
   <v>       0.00833333 </v>
   <v>       0.00833333 </v>
   <v>       0.00833333 </v>
   <v>       0.00833333 </v>
   <v>       0.00833333 </v>
   <v>       0.00833333 </v>
   <v>       0.00833333 </v>
   <v>       0.00833333 </v>
   <v>       0.00833333 </v>
   <v>       0.00833333 </v>
   <v>       0.00833333 </v>
   <v>       0.00833333 </v>
   <v>       0.00833333 </v>
   <v>       0.00833333 </v>
   <v>       0.00833333 </v>
   <v>       0.00833333 </v>
   <v>       0.00833333 </v>
   <v>       0.00833333 </v>
   <v>       0.00833333 </v>
   <v>       0.00833333 </v>
   <v>       0.00833333 </v>
   <v>       0.00833333 </v>
   <v>       0.00833333 </v>
   <v>       0.00833333 </v>
   <v>       0.00833333 </v>
   <v>       0.00833333 </v>
   <v>       0.00833333 </v>
   <v>       0.00833333 </v>
   <v>       0.00833333 </v>
   <v>       0.00833333 </v>
   <v>       0.00833333 </v>
   <v>       0.00833333 </v>
   <v>       0.00833333 </v>
   <v>       0.00833333 </v>
   <v>       0.00833333 </v>
   <v>       0.00833333 </v>
   <v>       0.00833333 </v>
   <v>       0.00833333 </v>
   <v>       0.00833333 </v>
   <v>       0.00833333 </v>
   <v>       0.00833333 </v>
   <v>       0.00833333 </v>
   <v>       0.00833333 </v>
   <v>       0.00833333 </v>
   <v>       0.00833333 </v>
   <v>       0.00833333 </v>
   <v>       0.00833333 </v>
   <v>       0.00833333 </v>
   <v>       0.00833333 </v>
   <v>       0.00833333 </v>
   <v>       0.00833333 </v>
   <v>       0.00833333 </v>
   <v>       0.00833333 </v>
   <v>       0.00833333 </v>
   <v>       0.00833333 </v>
   <v>       0.00833333 </v>
   <v>       0.00833333 </v>
   <v>       0.00833333 </v>
   <v>       0.00833333 </v>
   <v>       0.00833333 </v>
   <v>       0.00833333 </v>
   <v>       0.00833333 </v>
   <v>       0.00833333 </v>
   <v>       0.00833333 </v>
   <v>       0.00833333 </v>
   <v>       0.00833333 </v>
   <v>       0.00833333 </v>
   <v>       0.00833333 </v>
   <v>       0.00833333 </v>
   <v>       0.00833333 </v>
   <v>       0.00833333 </v>
   <v>       0.00833333 </v>
   <v>       0.00833333 </v>
   <v>       0.00833333 </v>
   <v>       0.00833333 </v>
   <v>       0.00833333 </v>
   <v>       0.00833333 </v>
   <v>       0.00833333 </v>
   <v>       0.00833333 </v>
   <v>       0.00833333 </v>
   <v>       0.00833333 </v>
   <v>       0.00833333 </v>
   <v>       0.00833333 </v>
   <v>       0.00833333 </v>
   <v>       0.00833333 </v>
   <v>       0.00833333 </v>
   <v>       0.00833333 </v>
   <v>       0.00833333 </v>
   <v>       0.00833333 </v>
   <v>       0.00833333 </v>
   <v>       0.00833333 </v>
   <v>       0.00833333 </v>
   <v>       0.00833333 </v>
   <v>       0.00833333 </v>
   <v>       0.00833333 </v>
   <v>       0.00833333 </v>
   <v>       0.00833333 </v>
   <v>       0.00833333 </v>
   <v>       0.00833333 </v>
   <v>       0.00833333 </v>
   <v>       0.00833333 </v>
   <v>       0.00833333 </v>
   <v>       0.00833333 </v>
   <v>       0.00833333 </v>
   <v>       0.00833333 </v>
   <v>       0.00833333 </v>
   <v>       0.00833333 </v>
   <v>       0.00833333 </v>
   <v>       0.00833333 </v>
   <v>       0.00833333 </v>
   <v>       0.00833333 </v>
   <v>       0.00833333 </v>
  </varray>
 </kpoints>
 <parameters>
  <separator name="general" >
   <i type="string" name="SYSTEM">Simulation for cell shape cell volume r</i>
   <i type="logical" name="LCOMPAT"> F  </i>
  </separator>
  <separator name="electronic" >
   <i type="string" name="PREC">high</i>
   <i name="ENMAX">    500.00000000</i>
   <i name="ENAUG">    644.87300000</i>
   <i name="EDIFF">      0.00001000</i>
   <i type="int" name="IALGO">    38</i>
   <i type="int" name="IWAVPR">    10</i>
   <i type="int" name="NBANDS">   240</i>
   <i name="NELECT">    372.00000000</i>
   <i type="int" name="TURBO">     0</i>
   <i type="int" name="IRESTART">     0</i>
   <i type="int" name="NREBOOT">     0</i>
   <i type="int" name="NMIN">     0</i>
   <i name="EREF">      0.00000000</i>
   <separator name="electronic smearing" >
    <i type="int" name="ISMEAR">     0</i>
    <i name="SIGMA">      0.01000000</i>
    <i name="KSPACING">      0.50000000</i>
    <i type="logical" name="KGAMMA"> T  </i>
   </separator>
   <separator name="electronic projectors" >
    <i type="logical" name="LREAL"> T  </i>
    <v name="ROPT">     -0.00040000     -0.00040000     -0.00040000     -0.00040000</v>
    <i type="int" name="LMAXPAW">  -100</i>
    <i type="int" name="LMAXMIX">     2</i>
    <i type="logical" name="NLSPLINE"> F  </i>
   </separator>
   <separator name="electronic startup" >
    <i type="int" name="ISTART">     1</i>
    <i type="int" name="ICHARG">    11</i>
    <i type="int" name="INIWAV">     1</i>
   </separator>
   <separator name="electronic spin" >
    <i type="int" name="ISPIN">     1</i>
    <i type="logical" name="LNONCOLLINEAR"> F  </i>
    <v name="MAGMOM">      1.00000000      1.00000000      1.00000000      1.00000000      1.00000000      1.00000000      1.00000000      1.00000000      1.00000000      1.00000000      1.00000000      1.00000000      1.00000000      1.00000000      1.00000000      1.00000000      1.00000000      1.00000000      1.00000000      1.00000000
      1.00000000      1.00000000      1.00000000      1.00000000      1.00000000      1.00000000      1.00000000      1.00000000      1.00000000      1.00000000      1.00000000      1.00000000      1.00000000      1.00000000      1.00000000      1.00000000      1.00000000      1.00000000      1.00000000      1.00000000
      1.00000000      1.00000000      1.00000000      1.00000000      1.00000000      1.00000000      1.00000000      1.00000000      1.00000000      1.00000000      1.00000000      1.00000000      1.00000000      1.00000000      1.00000000      1.00000000      1.00000000      1.00000000      1.00000000      1.00000000
      1.00000000      1.00000000      1.00000000      1.00000000      1.00000000      1.00000000      1.00000000      1.00000000      1.00000000      1.00000000      1.00000000      1.00000000      1.00000000      1.00000000      1.00000000      1.00000000      1.00000000      1.00000000      1.00000000      1.00000000
      1.00000000      1.00000000      1.00000000      1.00000000</v>
    <i name="NUPDOWN">     -1.00000000</i>
    <i type="logical" name="LSORBIT"> F  </i>
    <v name="SAXIS">      0.00000000      0.00000000      1.00000000</v>
    <i type="logical" name="LSPIRAL"> F  </i>
    <v name="QSPIRAL">      0.00000000      0.00000000      0.00000000</v>
    <i type="logical" name="LZEROZ"> F  </i>
   </separator>
   <separator name="electronic exchange-correlation" >
    <i type="logical" name="LASPH"> F  </i>
    <i type="logical" name="LMETAGGA"> F  </i>
   </separator>
   <separator name="electronic convergence" >
    <i type="int" name="NELM">   200</i>
    <i type="int" name="NELMDL">     0</i>
    <i type="int" name="NELMIN">     2</i>
    <i name="ENINI">    500.00000000</i>
    <separator name="electronic convergence detail" >
     <i type="logical" name="LDIAG"> T  </i>
     <i type="logical" name="LSUBROT"> F  </i>
     <i name="WEIMIN">      0.00000000</i>
     <i name="EBREAK">      0.00000001</i>
     <i name="DEPER">      0.30000000</i>
     <i type="int" name="NRMM">     4</i>
     <i name="TIME">      0.40000000</i>
    </separator>
   </separator>
   <separator name="electronic mixer" >
    <i name="AMIX">      0.40000000</i>
    <i name="BMIX">      1.00000000</i>
    <i name="AMIN">      0.10000000</i>
    <i name="AMIX_MAG">      1.60000000</i>
    <i name="BMIX_MAG">      1.00000000</i>
    <separator name="electronic mixer details" >
     <i type="int" name="IMIX">     4</i>
     <i type="logical" name="MIXFIRST"> F  </i>
     <i type="int" name="MAXMIX">   -45</i>
     <i name="WC">    100.00000000</i>
     <i type="int" name="INIMIX">     1</i>
     <i type="int" name="MIXPRE">     1</i>
     <i type="int" name="MREMOVE">     5</i>
    </separator>
   </separator>
   <separator name="electronic dipolcorrection" >
    <i type="logical" name="LDIPOL"> F  </i>
    <i type="logical" name="LMONO"> F  </i>
    <i type="int" name="IDIPOL">     0</i>
    <i name="EPSILON">      1.00000000</i>
    <v name="DIPOL">   -100.00000000   -100.00000000   -100.00000000</v>
    <i name="EFIELD">      0.00000000</i>
   </separator>
  </separator>
  <separator name="grids" >
   <i type="int" name="NGX">   108</i>
   <i type="int" name="NGY">   192</i>
   <i type="int" name="NGZ">   150</i>
   <i type="int" name="NGXF">   160</i>
   <i type="int" name="NGYF">   280</i>
   <i type="int" name="NGZF">   224</i>
   <i type="logical" name="ADDGRID"> F  </i>
  </separator>
  <separator name="ionic" >
   <i type="int" name="NSW">     0</i>
   <i type="int" name="IBRION">    -1</i>
   <i type="int" name="MDALGO">     0</i>
   <i type="int" name="ISIF">     2</i>
   <i name="PSTRESS">      0.00000000</i>
   <i name="EDIFFG">     -0.01000000</i>
   <i type="int" name="NFREE">     0</i>
   <i name="POTIM">      0.30000000</i>
   <i name="SMASS">     -3.00000000</i>
   <i name="SCALEE">      1.00000000</i>
  </separator>
  <separator name="ionic md" >
   <i name="TEBEG">      0.00010000</i>
   <i name="TEEND">      0.00010000</i>
   <i type="int" name="NBLOCK">     1</i>
   <i type="int" name="KBLOCK">     1</i>
   <i type="int" name="NPACO">   256</i>
   <i name="APACO">     16.00000000</i>
  </separator>
  <separator name="symmetry" >
   <i type="int" name="ISYM">     2</i>
   <i name="SYMPREC">      0.00001000</i>
  </separator>
  <separator name="dos" >
   <i type="int" name="LORBIT">     0</i>
   <v name="RWIGS">     -1.00000000     -1.00000000     -1.00000000     -1.00000000</v>
   <i type="int" name="NEDOS">   301</i>
   <i name="EMIN">     10.00000000</i>
   <i name="EMAX">    -10.00000000</i>
   <i name="EFERMI">      0.00000000</i>
  </separator>
  <separator name="writing" >
   <i type="int" name="NWRITE">     0</i>
   <i type="logical" name="LWAVE"> F  </i>
   <i type="logical" name="LDOWNSAMPLE"> F  </i>
   <i type="logical" name="LCHARG"> F  </i>
   <i type="logical" name="LPARD"> F  </i>
   <i type="logical" name="LVTOT"> F  </i>
   <i type="logical" name="LVHAR"> F  </i>
   <i type="logical" name="LELF"> F  </i>
   <i type="logical" name="LOPTICS"> F  </i>
   <v name="STM">      0.00000000      0.00000000      0.00000000      0.00000000      0.00000000      0.00000000      0.00000000</v>
  </separator>
  <separator name="performance" >
   <i type="int" name="NPAR">    16</i>
   <i type="int" name="NSIM">     4</i>
   <i type="int" name="NBLK">    -1</i>
   <i type="logical" name="LPLANE"> T  </i>
   <i type="logical" name="LSCALAPACK"> T  </i>
   <i type="logical" name="LSCAAWARE"> F  </i>
   <i type="logical" name="LSCALU"> F  </i>
   <i type="logical" name="LASYNC"> F  </i>
   <i type="logical" name="LORBITALREAL"> F  </i>
  </separator>
  <separator name="miscellaneous" >
   <i type="int" name="IDIOT">     3</i>
   <i type="int" name="ISPECIAL">     0</i>
   <i type="logical" name="LMUSIC"> F  </i>
   <v name="POMASS">     14.00100000     16.00000000      1.00000000     12.01100000</v>
   <v name="DARWINR">      0.00000000      0.00000000      0.00000000      0.00000000</v>
   <v name="DARWINV">      1.00000000      1.00000000      1.00000000      1.00000000</v>
   <i type="logical" name="LCORR"> T  </i>
  </separator>
  <i type="logical" name="GGA_COMPAT"> T  </i>
  <i type="logical" name="LBERRY"> F  </i>
  <i type="int" name="ICORELEVEL">     0</i>
  <i type="logical" name="LDAU"> F  </i>
  <i type="int" name="I_CONSTRAINED_M">     0</i>
  <separator name="electronic exchange-correlation" >
   <i type="string" name="GGA">PE</i>
   <i type="int" name="VOSKOWN">     0</i>
   <i type="logical" name="LHFCALC"> F  </i>
   <i type="string" name="PRECFOCK"></i>
   <i type="logical" name="LSYMGRAD"> F  </i>
   <i type="logical" name="LHFONE"> F  </i>
   <i type="logical" name="LRHFCALC"> F  </i>
   <i type="logical" name="LTHOMAS"> F  </i>
   <i type="logical" name="LMODELHF"> F  </i>
   <i name="ENCUT4O">     -1.00000000</i>
   <i type="int" name="EXXOEP">     0</i>
   <i type="int" name="FOURORBIT">     0</i>
   <i name="AEXX">      0.00000000</i>
   <i name="HFALPHA">      0.00000000</i>
   <i name="MCALPHA">      0.00000000</i>
   <i name="ALDAX">      1.00000000</i>
   <i name="AGGAX">      1.00000000</i>
   <i name="ALDAC">      1.00000000</i>
   <i name="AGGAC">      1.00000000</i>
   <i type="int" name="NKREDX">     1</i>
   <i type="int" name="NKREDY">     1</i>
   <i type="int" name="NKREDZ">     1</i>
   <i type="logical" name="SHIFTRED"> F  </i>
   <i type="logical" name="ODDONLY"> F  </i>
   <i type="logical" name="EVENONLY"> F  </i>
   <i type="int" name="LMAXFOCK">     0</i>
   <i type="int" name="NMAXFOCKAE">     0</i>
   <i type="logical" name="LFOCKAEDFT"> F  </i>
   <i name="HFSCREEN">      0.00000000</i>
   <i name="HFSCREENC">      0.00000000</i>
   <i type="int" name="NBANDSGWLOW">     0</i>
  </separator>
  <separator name="vdW DFT" >
   <i type="logical" name="LUSE_VDW"> F  </i>
   <i name="Zab_VDW">     -0.84910000</i>
   <i name="PARAM1">      0.12340000</i>
   <i name="PARAM2">      1.00000000</i>
   <i name="PARAM3">      0.00000000</i>
  </separator>
  <separator name="model GW" >
   <i type="int" name="MODEL_GW">     0</i>
   <i name="MODEL_EPS0">     50.84130992</i>
   <i name="MODEL_ALPHA">      1.00000000</i>
  </separator>
  <separator name="linear response parameters" >
   <i type="logical" name="LEPSILON"> F  </i>
   <i type="logical" name="LRPA"> F  </i>
   <i type="logical" name="LNABLA"> F  </i>
   <i type="logical" name="LVEL"> F  </i>
   <i type="int" name="KINTER">     0</i>
   <i name="CSHIFT">      0.10000000</i>
   <i name="OMEGAMAX">     -1.00000000</i>
   <i name="DEG_THRESHOLD">      0.00200000</i>
   <i name="RTIME">     -0.10000000</i>
   <i name="WPLASMAI">      0.00000000</i>
   <v name="DFIELD">      0.00000000      0.00000000      0.00000000</v>
   <v name="WPLASMA">      0.00000000      0.00000000      0.00000000      0.00000000      0.00000000      0.00000000      0.00000000      0.00000000      0.00000000</v>
  </separator>
  <separator name="orbital magnetization" >
   <i type="logical" name="NUCIND"> F  </i>
   <v name="MAGPOS">      0.00000000      0.00000000      0.00000000</v>
   <i type="logical" name="LNICSALL"> T  </i>
   <i type="logical" name="ORBITALMAG"> F  </i>
   <i type="logical" name="LMAGBLOCH"> F  </i>
   <i type="logical" name="LCHIMAG"> F  </i>
   <i type="logical" name="LGAUGE"> T  </i>
   <i type="int" name="MAGATOM">     0</i>
   <v name="MAGDIPOL">      0.00000000      0.00000000      0.00000000</v>
   <v name="AVECCONST">      0.00000000      0.00000000      0.00000000</v>
  </separator>
  <separator name="response functions" >
   <i type="logical" name="LADDER"> F  </i>
   <i type="logical" name="LRPAFORCE"> F  </i>
   <i type="logical" name="LFXC"> F  </i>
   <i type="logical" name="LHARTREE"> T  </i>
   <i type="int" name="IBSE">     0</i>
   <v type="int" name="KPOINT">    -1     0     0     0</v>
   <i type="logical" name="LTCTE"> F  </i>
   <i type="logical" name="LTETE"> F  </i>
   <i type="logical" name="LTRIPLET"> F  </i>
   <i type="logical" name="LFXCEPS"> F  </i>
   <i type="logical" name="LFXHEG"> F  </i>
   <i type="int" name="NATURALO">     2</i>
   <i type="logical" name="L2ORDER"> F  </i>
   <i type="logical" name="LMP2LT"> F  </i>
   <i type="logical" name="LUSEW"> F  </i>
   <i name="ENCUTGW">     -2.00000000</i>
   <i name="ENCUTGWSOFT">     -2.00000000</i>
   <i name="ENCUTLF">     -1.00000000</i>
   <i type="int" name="LMAXMP2">    -1</i>
   <i name="SCISSOR">      0.00000000</i>
   <i type="int" name="NOMEGA">     0</i>
   <i type="int" name="NOMEGAR">     0</i>
   <i type="int" name="NBANDSGW">    -1</i>
   <i type="int" name="NBANDSO">    -1</i>
   <i type="int" name="NBANDSV">    -1</i>
   <i type="int" name="NELM">   200</i>
   <i type="int" name="NELMHF">     1</i>
   <i type="int" name="DIM">     3</i>
   <i type="int" name="ANTIRES">     0</i>
   <i name="OMEGAMAX">    -30.00000000</i>
   <i name="OMEGAMIN">    -30.00000000</i>
   <i name="OMEGATL">   -200.00000000</i>
   <i type="int" name="OMEGAGRID">   140</i>
   <i name="CSHIFT">     -0.10000000</i>
   <i type="logical" name="SELFENERGY"> F  </i>
   <i type="logical" name="LSPECTRAL"> F  </i>
   <i type="logical" name="LSPECTRALGW"> F  </i>
   <i type="logical" name="LSINGLES"> F  </i>
   <i type="logical" name="LFERMIGW"> F  </i>
   <i type="logical" name="ODDONLYGW"> F  </i>
   <i type="logical" name="EVENONLYGW"> F  </i>
   <i type="int" name="NKREDLFX">     1</i>
   <i type="int" name="NKREDLFY">     1</i>
   <i type="int" name="NKREDLFZ">     1</i>
   <i type="int" name="MAXMEM">  2800</i>
   <i type="int" name="TELESCOPE">     0</i>
   <i type="int" name="TAUPAR">     1</i>
   <i type="int" name="OMEGAPAR">    -1</i>
   <i name="LAMBDA">      1.00000000</i>
  </separator>
  <separator name="External order field" >
   <i name="OFIELD_KAPPA">      0.00000000</i>
   <v name="OFIELD_K">      0.00000000      0.00000000      0.00000000</v>
   <i name="OFIELD_Q6_NEAR">      0.00000000</i>
   <i name="OFIELD_Q6_FAR">      0.00000000</i>
   <i name="OFIELD_A">      0.00000000</i>
  </separator>
  <separator name="solvation model" >
   <i type="logical" name="LSOL"> F  </i>
  </separator>
 </parameters>
 <atominfo>
  <atoms>      84 </atoms>
  <types>       4 </types>
  <array name="atoms" >
   <dimension dim="1">ion</dimension>
   <field type="string">element</field>
   <field type="int">atomtype</field>
   <set>
    <rc><c>N </c><c>   1</c></rc>
    <rc><c>N </c><c>   1</c></rc>
    <rc><c>N </c><c>   1</c></rc>
    <rc><c>N </c><c>   1</c></rc>
    <rc><c>N </c><c>   1</c></rc>
    <rc><c>N </c><c>   1</c></rc>
    <rc><c>N </c><c>   1</c></rc>
    <rc><c>N </c><c>   1</c></rc>
    <rc><c>N </c><c>   1</c></rc>
    <rc><c>N </c><c>   1</c></rc>
    <rc><c>N </c><c>   1</c></rc>
    <rc><c>N </c><c>   1</c></rc>
    <rc><c>N </c><c>   1</c></rc>
    <rc><c>N </c><c>   1</c></rc>
    <rc><c>N </c><c>   1</c></rc>
    <rc><c>N </c><c>   1</c></rc>
    <rc><c>N </c><c>   1</c></rc>
    <rc><c>N </c><c>   1</c></rc>
    <rc><c>N </c><c>   1</c></rc>
    <rc><c>N </c><c>   1</c></rc>
    <rc><c>N </c><c>   1</c></rc>
    <rc><c>N </c><c>   1</c></rc>
    <rc><c>N </c><c>   1</c></rc>
    <rc><c>N </c><c>   1</c></rc>
    <rc><c>N </c><c>   1</c></rc>
    <rc><c>N </c><c>   1</c></rc>
    <rc><c>N </c><c>   1</c></rc>
    <rc><c>N </c><c>   1</c></rc>
    <rc><c>N </c><c>   1</c></rc>
    <rc><c>N </c><c>   1</c></rc>
    <rc><c>O </c><c>   2</c></rc>
    <rc><c>O </c><c>   2</c></rc>
    <rc><c>O </c><c>   2</c></rc>
    <rc><c>O </c><c>   2</c></rc>
    <rc><c>O </c><c>   2</c></rc>
    <rc><c>O </c><c>   2</c></rc>
    <rc><c>O </c><c>   2</c></rc>
    <rc><c>O </c><c>   2</c></rc>
    <rc><c>O </c><c>   2</c></rc>
    <rc><c>O </c><c>   2</c></rc>
    <rc><c>O </c><c>   2</c></rc>
    <rc><c>O </c><c>   2</c></rc>
    <rc><c>H </c><c>   3</c></rc>
    <rc><c>H </c><c>   3</c></rc>
    <rc><c>H </c><c>   3</c></rc>
    <rc><c>H </c><c>   3</c></rc>
    <rc><c>H </c><c>   3</c></rc>
    <rc><c>H </c><c>   3</c></rc>
    <rc><c>C </c><c>   4</c></rc>
    <rc><c>C </c><c>   4</c></rc>
    <rc><c>C </c><c>   4</c></rc>
    <rc><c>C </c><c>   4</c></rc>
    <rc><c>C </c><c>   4</c></rc>
    <rc><c>C </c><c>   4</c></rc>
    <rc><c>C </c><c>   4</c></rc>
    <rc><c>C </c><c>   4</c></rc>
    <rc><c>C </c><c>   4</c></rc>
    <rc><c>C </c><c>   4</c></rc>
    <rc><c>C </c><c>   4</c></rc>
    <rc><c>C </c><c>   4</c></rc>
    <rc><c>C </c><c>   4</c></rc>
    <rc><c>C </c><c>   4</c></rc>
    <rc><c>C </c><c>   4</c></rc>
    <rc><c>C </c><c>   4</c></rc>
    <rc><c>C </c><c>   4</c></rc>
    <rc><c>C </c><c>   4</c></rc>
    <rc><c>C </c><c>   4</c></rc>
    <rc><c>C </c><c>   4</c></rc>
    <rc><c>C </c><c>   4</c></rc>
    <rc><c>C </c><c>   4</c></rc>
    <rc><c>C </c><c>   4</c></rc>
    <rc><c>C </c><c>   4</c></rc>
    <rc><c>C </c><c>   4</c></rc>
    <rc><c>C </c><c>   4</c></rc>
    <rc><c>C </c><c>   4</c></rc>
    <rc><c>C </c><c>   4</c></rc>
    <rc><c>C </c><c>   4</c></rc>
    <rc><c>C </c><c>   4</c></rc>
    <rc><c>C </c><c>   4</c></rc>
    <rc><c>C </c><c>   4</c></rc>
    <rc><c>C </c><c>   4</c></rc>
    <rc><c>C </c><c>   4</c></rc>
    <rc><c>C </c><c>   4</c></rc>
    <rc><c>C </c><c>   4</c></rc>
   </set>
  </array>
  <array name="atomtypes" >
   <dimension dim="1">type</dimension>
   <field type="int">atomspertype</field>
   <field type="string">element</field>
   <field>mass</field>
   <field>valence</field>
   <field type="string">pseudopotential</field>
   <set>
    <rc><c>  30</c><c>N </c><c>     14.00100000</c><c>      5.00000000</c><c>  PAW_PBE N 08Apr2002                   </c></rc>
    <rc><c>  12</c><c>O </c><c>     16.00000000</c><c>      6.00000000</c><c>  PAW_PBE O 08Apr2002                   </c></rc>
    <rc><c>   6</c><c>H </c><c>      1.00000000</c><c>      1.00000000</c><c>  PAW_PBE H 15Jun2001                   </c></rc>
    <rc><c>  36</c><c>C </c><c>     12.01100000</c><c>      4.00000000</c><c>  PAW_PBE C 08Apr2002                   </c></rc>
   </set>
  </array>
 </atominfo>
 <structure name="initialpos" >
  <crystal>
   <varray name="basis" >
    <v>      14.34011794      -0.03033321       0.00000000 </v>
    <v>      -0.05072026      24.81783688       0.00000000 </v>
    <v>       0.00000000       0.00000000      20.00000000 </v>
   </varray>
   <i name="volume">   7117.78338869 </i>
   <varray name="rec_basis" >
    <v>       0.06973473       0.00014252       0.00000000 </v>
    <v>       0.00008523       0.04029377       0.00000000 </v>
    <v>       0.00000000       0.00000000       0.05000000 </v>
   </varray>
  </crystal>
  <varray name="positions" >
   <v>       0.17012639       0.76630962       0.49590665 </v>
   <v>       0.67286418       0.26521138       0.44046167 </v>
   <v>       0.08616744       0.63073667       0.47250818 </v>
   <v>       0.00346127       0.71386233       0.47417525 </v>
   <v>       0.91988761       0.63053490       0.47573583 </v>
   <v>       0.42127411       0.85295561       0.46394800 </v>
   <v>       0.50292616       0.76963510       0.47353562 </v>
   <v>       0.58686159       0.85185178       0.45946014 </v>
   <v>       0.83972528       0.76827923       0.46918213 </v>
   <v>       0.77383501       0.85432319       0.46734781 </v>
   <v>       0.93137197       0.52100207       0.50740048 </v>
   <v>       0.36303475       0.94383912       0.38158228 </v>
   <v>       0.24556464       0.84722792       0.52712518 </v>
   <v>       0.66846578       0.71475007       0.46977838 </v>
   <v>       0.58036301       0.96159436       0.48326538 </v>
   <v>       0.33580019       0.71774536       0.45540781 </v>
   <v>       0.58869938       0.13067362       0.46744601 </v>
   <v>       0.50443771       0.21325645       0.46588430 </v>
   <v>       0.42243209       0.12941798       0.46237006 </v>
   <v>       0.92328344       0.35310193       0.47327320 </v>
   <v>       0.00551093       0.27036352       0.46712850 </v>
   <v>       0.08964793       0.35274581       0.47954455 </v>
   <v>       0.25703469       0.18420994       0.46740735 </v>
   <v>       0.09435698       0.17494751       0.46905628 </v>
   <v>       0.43502254       0.02134227       0.42847696 </v>
   <v>       0.85876238       0.44262412       0.55073113 </v>
   <v>       0.75056103       0.34370458       0.40266617 </v>
   <v>       0.25326880       0.29623526       0.47622636 </v>
   <v>       0.07997063       0.46282357       0.45396774 </v>
   <v>       0.83737985       0.21844023       0.48624651 </v>
   <v>       0.77504581       0.87637531       0.52249428 </v>
   <v>       0.78683570       0.87513911       0.41226656 </v>
   <v>       0.28192174       0.95664846       0.39223299 </v>
   <v>       0.39240235       0.91298678       0.33759310 </v>
   <v>       0.28887289       0.85286321       0.58025325 </v>
   <v>       0.19842709       0.88093235       0.49781052 </v>
   <v>       0.06460618       0.16111776       0.52425353 </v>
   <v>       0.06595689       0.16081762       0.41369021 </v>
   <v>       0.88554235       0.41410838       0.59778460 </v>
   <v>       0.77802962       0.45281732       0.53492593 </v>
   <v>       0.69699333       0.37803725       0.42422803 </v>
   <v>       0.80209295       0.34715480       0.35312066 </v>
   <v>       0.25800163       0.64780933       0.44268723 </v>
   <v>       0.75958010       0.14887459       0.50165651 </v>
   <v>       0.74440097       0.64363931       0.47304294 </v>
   <v>       0.14104573       0.53687344       0.43307547 </v>
   <v>       0.39802844       0.29322638       0.47717048 </v>
   <v>       0.64429941       0.03480623       0.50430339 </v>
   <v>       0.17177845       0.71476435       0.47569817 </v>
   <v>       0.25595618       0.69018519       0.45707749 </v>
   <v>       0.67367036       0.21464479       0.46423769 </v>
   <v>       0.75759472       0.19073834       0.48510477 </v>
   <v>       0.08182604       0.68491620       0.47391530 </v>
   <v>       0.58356183       0.18475306       0.46626134 </v>
   <v>       0.00280147       0.60588511       0.47536343 </v>
   <v>       0.92464795       0.68466208       0.47360580 </v>
   <v>       0.50474223       0.87715844       0.45912651 </v>
   <v>       0.42510565       0.79913322       0.47077642 </v>
   <v>       0.58190850       0.79822807       0.46694268 </v>
   <v>       0.67195266       0.76877365       0.46823706 </v>
   <v>       0.83500534       0.71435672       0.47119398 </v>
   <v>       0.76014688       0.79453515       0.46794490 </v>
   <v>       0.50723991       0.93692319       0.45475652 </v>
   <v>       0.00426326       0.54607545       0.47887033 </v>
   <v>       0.43712028       0.96847552       0.42477365 </v>
   <v>       0.33514723       0.76936624       0.47504509 </v>
   <v>       0.25041080       0.79214590       0.49695237 </v>
   <v>       0.74830477       0.68754390       0.47142286 </v>
   <v>       0.08012673       0.51651486       0.45398435 </v>
   <v>       0.50577091       0.10534671       0.46318372 </v>
   <v>       0.42591690       0.18334672       0.46577689 </v>
   <v>       0.00691900       0.37738186       0.47846706 </v>
   <v>       0.92704368       0.29932506       0.46785034 </v>
   <v>       0.08461666       0.29890243       0.47351521 </v>
   <v>       0.17334152       0.26799843       0.47336724 </v>
   <v>       0.33617992       0.21309591       0.46926850 </v>
   <v>       0.17807493       0.21113146       0.46978005 </v>
   <v>       0.00728869       0.43726978       0.48188075 </v>
   <v>       0.50760143       0.04559672       0.45840547 </v>
   <v>       0.93495723       0.46806558       0.51035482 </v>
   <v>       0.83742649       0.26914171       0.46330467 </v>
   <v>       0.75346346       0.29076532       0.43832427 </v>
   <v>       0.33371297       0.26967488       0.47456717 </v>
   <v>       0.58259804       0.01528882       0.48331746 </v>
  </varray>
 </structure>
 <calculation>
  <scstep>
   <time name="dav">  231.87  233.80</time>
   <time name="total">  231.99  233.97</time>
   <energy>
    <i name="alphaZ">     87.71493028 </i>
    <i name="ewald">  45164.34492965 </i>
    <i name="hartreedc"> -60459.65394835 </i>
    <i name="XCdc">   1456.54674776 </i>
    <i name="pawpsdc">  36564.06943060 </i>
    <i name="pawaedc"> -36652.65523706 </i>
    <i name="eentropy">     -0.00000000 </i>
    <i name="bandstr">  -5305.06134575 </i>
    <i name="atom">  18496.58445843 </i>
    <i name="e_fr_energy">   -648.11003445 </i>
    <i name="e_wo_entrp">   -648.11003445 </i>
    <i name="e_0_energy">   -648.11003445 </i>
   </energy>
  </scstep>
  <scstep>
   <time name="dav">  260.69  262.80</time>
   <time name="total">  260.70  262.82</time>
   <energy>
    <i name="e_fr_energy">   -649.39845610 </i>
    <i name="e_wo_entrp">   -649.39845610 </i>
    <i name="e_0_energy">   -649.39845610 </i>
   </energy>
  </scstep>
  <scstep>
   <time name="dav">  296.69  299.15</time>
   <time name="total">  296.72  299.18</time>
   <energy>
    <i name="e_fr_energy">   -649.43524705 </i>
    <i name="e_wo_entrp">   -649.43524705 </i>
    <i name="e_0_energy">   -649.43524705 </i>
   </energy>
  </scstep>
  <scstep>
   <time name="dav">  257.22  259.21</time>
   <time name="total">  257.24  259.23</time>
   <energy>
    <i name="e_fr_energy">   -649.43579100 </i>
    <i name="e_wo_entrp">   -649.43579100 </i>
    <i name="e_0_energy">   -649.43579100 </i>
   </energy>
  </scstep>
  <scstep>
   <time name="dav">  254.00  257.72</time>
   <time name="total">  254.02  257.74</time>
   <energy>
    <i name="e_fr_energy">   -649.43581329 </i>
    <i name="e_wo_entrp">   -649.43581329 </i>
    <i name="e_0_energy">   -649.43581329 </i>
   </energy>
  </scstep>
  <scstep>
   <time name="dav">  195.15  198.27</time>
   <time name="total">  195.18  198.29</time>
   <energy>
    <i name="alphaZ">     87.71493028 </i>
    <i name="ewald">  45164.34492965 </i>
    <i name="hartreedc"> -60459.65394835 </i>
    <i name="XCdc">   1456.54674776 </i>
    <i name="pawpsdc">  36564.06943060 </i>
    <i name="pawaedc"> -36652.65523706 </i>
    <i name="eentropy">     -0.00000000 </i>
    <i name="bandstr">  -5306.38712525 </i>
    <i name="atom">  18496.58445843 </i>
    <i name="e_fr_energy">   -649.43581395 </i>
    <i name="e_wo_entrp">   -649.43581395 </i>
    <i name="e_0_energy">   -649.43581395 </i>
   </energy>
  </scstep>
  <structure>
   <crystal>
    <varray name="basis" >
     <v>      14.34011794      -0.03033321       0.00000000 </v>
     <v>      -0.05072026      24.81783688       0.00000000 </v>
     <v>       0.00000000       0.00000000      20.00000000 </v>
    </varray>
    <i name="volume">   7117.78338869 </i>
    <varray name="rec_basis" >
     <v>       0.06973473       0.00014252       0.00000000 </v>
     <v>       0.00008523       0.04029377       0.00000000 </v>
     <v>       0.00000000       0.00000000       0.05000000 </v>
    </varray>
   </crystal>
   <varray name="positions" >
    <v>       0.17012639       0.76630962       0.49590665 </v>
    <v>       0.67286418       0.26521138       0.44046167 </v>
    <v>       0.08616744       0.63073667       0.47250818 </v>
    <v>       0.00346127       0.71386233       0.47417525 </v>
    <v>       0.91988761       0.63053490       0.47573583 </v>
    <v>       0.42127411       0.85295561       0.46394800 </v>
    <v>       0.50292616       0.76963510       0.47353562 </v>
    <v>       0.58686159       0.85185178       0.45946014 </v>
    <v>       0.83972528       0.76827923       0.46918213 </v>
    <v>       0.77383501       0.85432319       0.46734781 </v>
    <v>       0.93137197       0.52100207       0.50740048 </v>
    <v>       0.36303475       0.94383912       0.38158228 </v>
    <v>       0.24556464       0.84722792       0.52712518 </v>
    <v>       0.66846578       0.71475007       0.46977838 </v>
    <v>       0.58036301       0.96159436       0.48326538 </v>
    <v>       0.33580019       0.71774536       0.45540781 </v>
    <v>       0.58869938       0.13067362       0.46744601 </v>
    <v>       0.50443771       0.21325645       0.46588430 </v>
    <v>       0.42243209       0.12941798       0.46237006 </v>
    <v>       0.92328344       0.35310193       0.47327320 </v>
    <v>       0.00551093       0.27036352       0.46712850 </v>
    <v>       0.08964793       0.35274581       0.47954455 </v>
    <v>       0.25703469       0.18420994       0.46740735 </v>
    <v>       0.09435698       0.17494751       0.46905628 </v>
    <v>       0.43502254       0.02134227       0.42847696 </v>
    <v>       0.85876238       0.44262412       0.55073113 </v>
    <v>       0.75056103       0.34370458       0.40266617 </v>
    <v>       0.25326880       0.29623526       0.47622636 </v>
    <v>       0.07997063       0.46282357       0.45396774 </v>
    <v>       0.83737985       0.21844023       0.48624651 </v>
    <v>       0.77504581       0.87637531       0.52249428 </v>
    <v>       0.78683570       0.87513911       0.41226656 </v>
    <v>       0.28192174       0.95664846       0.39223299 </v>
    <v>       0.39240235       0.91298678       0.33759310 </v>
    <v>       0.28887289       0.85286321       0.58025325 </v>
    <v>       0.19842709       0.88093235       0.49781052 </v>
    <v>       0.06460618       0.16111776       0.52425353 </v>
    <v>       0.06595689       0.16081762       0.41369021 </v>
    <v>       0.88554235       0.41410838       0.59778460 </v>
    <v>       0.77802962       0.45281732       0.53492593 </v>
    <v>       0.69699333       0.37803725       0.42422803 </v>
    <v>       0.80209295       0.34715480       0.35312066 </v>
    <v>       0.25800163       0.64780933       0.44268723 </v>
    <v>       0.75958010       0.14887459       0.50165651 </v>
    <v>       0.74440097       0.64363931       0.47304294 </v>
    <v>       0.14104573       0.53687344       0.43307547 </v>
    <v>       0.39802844       0.29322638       0.47717048 </v>
    <v>       0.64429941       0.03480623       0.50430339 </v>
    <v>       0.17177845       0.71476435       0.47569817 </v>
    <v>       0.25595618       0.69018519       0.45707749 </v>
    <v>       0.67367036       0.21464479       0.46423769 </v>
    <v>       0.75759472       0.19073834       0.48510477 </v>
    <v>       0.08182604       0.68491620       0.47391530 </v>
    <v>       0.58356183       0.18475306       0.46626134 </v>
    <v>       0.00280147       0.60588511       0.47536343 </v>
    <v>       0.92464795       0.68466208       0.47360580 </v>
    <v>       0.50474223       0.87715844       0.45912651 </v>
    <v>       0.42510565       0.79913322       0.47077642 </v>
    <v>       0.58190850       0.79822807       0.46694268 </v>
    <v>       0.67195266       0.76877365       0.46823706 </v>
    <v>       0.83500534       0.71435672       0.47119398 </v>
    <v>       0.76014688       0.79453515       0.46794490 </v>
    <v>       0.50723991       0.93692319       0.45475652 </v>
    <v>       0.00426326       0.54607545       0.47887033 </v>
    <v>       0.43712028       0.96847552       0.42477365 </v>
    <v>       0.33514723       0.76936624       0.47504509 </v>
    <v>       0.25041080       0.79214590       0.49695237 </v>
    <v>       0.74830477       0.68754390       0.47142286 </v>
    <v>       0.08012673       0.51651486       0.45398435 </v>
    <v>       0.50577091       0.10534671       0.46318372 </v>
    <v>       0.42591690       0.18334672       0.46577689 </v>
    <v>       0.00691900       0.37738186       0.47846706 </v>
    <v>       0.92704368       0.29932506       0.46785034 </v>
    <v>       0.08461666       0.29890243       0.47351521 </v>
    <v>       0.17334152       0.26799843       0.47336724 </v>
    <v>       0.33617992       0.21309591       0.46926850 </v>
    <v>       0.17807493       0.21113146       0.46978005 </v>
    <v>       0.00728869       0.43726978       0.48188075 </v>
    <v>       0.50760143       0.04559672       0.45840547 </v>
    <v>       0.93495723       0.46806558       0.51035482 </v>
    <v>       0.83742649       0.26914171       0.46330467 </v>
    <v>       0.75346346       0.29076532       0.43832427 </v>
    <v>       0.33371297       0.26967488       0.47456717 </v>
    <v>       0.58259804       0.01528882       0.48331746 </v>
   </varray>
  </structure>
  <varray name="forces" >
   <v>      -0.00256457      -0.00133478       0.00303317 </v>
   <v>      -0.00594072      -0.00235338      -0.00062121 </v>
   <v>      -0.00216069       0.00033479      -0.00112274 </v>
   <v>       0.00087776       0.00227771       0.00216641 </v>
   <v>      -0.00465304      -0.00109243       0.00393447 </v>
   <v>       0.00477402      -0.00179001       0.00204699 </v>
   <v>      -0.00032616      -0.00418306      -0.00129076 </v>
   <v>       0.00065354      -0.00009904      -0.00031947 </v>
   <v>       0.00106659      -0.00599665      -0.00035652 </v>
   <v>      -0.00207235      -0.00168985       0.00074160 </v>
   <v>      -0.00027042      -0.00074335      -0.00474555 </v>
   <v>       0.00104921      -0.00176682       0.00020980 </v>
   <v>      -0.00415482      -0.00246891       0.00043778 </v>
   <v>       0.00059754      -0.00117800      -0.00272665 </v>
   <v>       0.00405936      -0.00371574      -0.00094806 </v>
   <v>       0.00045679      -0.00245811       0.00049554 </v>
   <v>      -0.00266121       0.00060727       0.00333146 </v>
   <v>      -0.00458162       0.00455600      -0.00024230 </v>
   <v>       0.00183260       0.00170076      -0.00299579 </v>
   <v>       0.00068711       0.00080929      -0.00037213 </v>
   <v>       0.00107050      -0.00302388       0.00260830 </v>
   <v>       0.00275766       0.00322543      -0.00043269 </v>
   <v>       0.00118244      -0.00350352       0.00034496 </v>
   <v>       0.00299090       0.00116771       0.00444037 </v>
   <v>      -0.00167378       0.00010331      -0.00363044 </v>
   <v>       0.00654193       0.00098856      -0.00435024 </v>
   <v>      -0.00118069      -0.00093420      -0.00194428 </v>
   <v>       0.00027905      -0.00196989      -0.00255446 </v>
   <v>      -0.00383833       0.00255206      -0.00735614 </v>
   <v>       0.00043063      -0.00354836      -0.00032137 </v>
   <v>       0.00277483       0.00150060       0.00119218 </v>
   <v>       0.00029060       0.00315775      -0.00094470 </v>
   <v>      -0.00296222       0.00195238       0.00204477 </v>
   <v>      -0.00025368      -0.00208548      -0.00241224 </v>
   <v>       0.00660115      -0.00066554       0.00381713 </v>
   <v>      -0.00089568      -0.00109681       0.00635939 </v>
   <v>       0.00119502       0.00163321       0.00570780 </v>
   <v>      -0.00316087      -0.00185358      -0.00883357 </v>
   <v>      -0.00237225      -0.00165374       0.00679109 </v>
   <v>      -0.00563968       0.00200777      -0.00450757 </v>
   <v>      -0.00016853       0.00032896      -0.00072332 </v>
   <v>       0.00130675      -0.00009398      -0.00325481 </v>
   <v>       0.00006383       0.00282350      -0.00151202 </v>
   <v>       0.00176459       0.00437853       0.00046858 </v>
   <v>      -0.00096973       0.00009388       0.00210396 </v>
   <v>      -0.00114522       0.00214101      -0.00188264 </v>
   <v>      -0.00055788       0.00085392      -0.00529685 </v>
   <v>       0.00108860      -0.00326677      -0.00297829 </v>
   <v>       0.00077689      -0.00302575      -0.00233735 </v>
   <v>       0.00029171      -0.00320993      -0.00309613 </v>
   <v>      -0.00216747       0.00057490       0.00137820 </v>
   <v>      -0.00037969      -0.00252044       0.00147777 </v>
   <v>       0.00423778      -0.00022651      -0.00089230 </v>
   <v>       0.00369080      -0.00295565       0.00017891 </v>
   <v>      -0.00233243      -0.00059942      -0.00001319 </v>
   <v>      -0.00263555      -0.00382011       0.00294867 </v>
   <v>      -0.00231588      -0.00094719      -0.00272403 </v>
   <v>      -0.00343435       0.00494908      -0.00138187 </v>
   <v>       0.00234014       0.00238876       0.00137585 </v>
   <v>       0.00240594       0.00015177       0.00426875 </v>
   <v>      -0.00123540       0.00302573       0.00447127 </v>
   <v>      -0.00566588       0.00117444       0.00238260 </v>
   <v>       0.00118627      -0.00085824       0.00263040 </v>
   <v>       0.00152028       0.00096404      -0.00055063 </v>
   <v>      -0.00243679       0.00010850       0.00122565 </v>
   <v>       0.00070584       0.00053567      -0.00009399 </v>
   <v>       0.00307006       0.00520297       0.00217322 </v>
   <v>       0.00321392      -0.00271601       0.00265527 </v>
   <v>      -0.00003726       0.00437662       0.00147038 </v>
   <v>       0.00536817      -0.00117064       0.00124532 </v>
   <v>      -0.00046687      -0.00500670      -0.00033996 </v>
   <v>      -0.00337651      -0.00085421      -0.00093971 </v>
   <v>      -0.00264054       0.00312281       0.00291198 </v>
   <v>       0.00187390       0.00479177       0.00199947 </v>
   <v>       0.00458333      -0.00261719       0.00061930 </v>
   <v>       0.00124509       0.00146420      -0.00237131 </v>
   <v>      -0.00210944       0.00312097      -0.00160477 </v>
   <v>      -0.00231826       0.00016348       0.00216955 </v>
   <v>       0.00460156       0.00281710       0.00213652 </v>
   <v>      -0.00201514      -0.00179247       0.00163223 </v>
   <v>      -0.00432052       0.00366197      -0.00106904 </v>
   <v>       0.00335589       0.00222805      -0.00102797 </v>
   <v>       0.00317959      -0.00434298      -0.00280929 </v>
   <v>       0.00005194       0.00721213      -0.00369874 </v>
  </varray>
  <varray name="stress" >
   <v>      -0.05909921      -0.00796679       0.00028371 </v>
   <v>      -0.00796680      -0.06464236      -0.00990077 </v>
   <v>       0.00028371      -0.00990077      -0.33251989 </v>
  </varray>
  <energy>
   <i name="e_fr_energy">   -651.46814448 </i>
   <i name="e_wo_entrp">   -651.46814448 </i>
   <i name="e_0_energy">     -0.00000000 </i>
  </energy>
  <time name="totalsc"> 1670.30 1687.87</time>
  <eigenvalues>
   <array>
    <dimension dim="1">band</dimension>
    <dimension dim="2">kpoint</dimension>
    <dimension dim="3">spin</dimension>
    <field>eigene</field>
    <field>occ</field>
    <set>
     <set comment="spin 1">
      <set comment="kpoint 1">
       <r>  -30.8083    1.0000 </r>
       <r>  -30.7916    1.0000 </r>
       <r>  -30.6454    1.0000 </r>
       <r>  -30.5918    1.0000 </r>
       <r>  -30.5853    1.0000 </r>
       <r>  -30.5615    1.0000 </r>
       <r>  -26.5015    1.0000 </r>
       <r>  -26.4765    1.0000 </r>
       <r>  -26.3393    1.0000 </r>
       <r>  -26.2922    1.0000 </r>
       <r>  -26.2784    1.0000 </r>
       <r>  -26.2681    1.0000 </r>
       <r>  -26.2602    1.0000 </r>
       <r>  -26.2408    1.0000 </r>
       <r>  -26.2021    1.0000 </r>
       <r>  -26.1465    1.0000 </r>
       <r>  -25.4913    1.0000 </r>
       <r>  -25.4307    1.0000 </r>
       <r>  -25.3634    1.0000 </r>
       <r>  -25.3280    1.0000 </r>
       <r>  -25.2268    1.0000 </r>
       <r>  -25.1788    1.0000 </r>
       <r>  -23.7378    1.0000 </r>
       <r>  -23.6202    1.0000 </r>
       <r>  -23.5962    1.0000 </r>
       <r>  -23.5260    1.0000 </r>
       <r>  -23.4659    1.0000 </r>
       <r>  -23.3899    1.0000 </r>
       <r>  -23.0839    1.0000 </r>
       <r>  -23.0632    1.0000 </r>
       <r>  -23.0057    1.0000 </r>
       <r>  -22.9935    1.0000 </r>
       <r>  -22.9596    1.0000 </r>
       <r>  -22.9114    1.0000 </r>
       <r>  -22.8459    1.0000 </r>
       <r>  -22.7538    1.0000 </r>
       <r>  -20.7934    1.0000 </r>
       <r>  -20.7039    1.0000 </r>
       <r>  -20.6647    1.0000 </r>
       <r>  -20.5813    1.0000 </r>
       <r>  -20.5646    1.0000 </r>
       <r>  -20.5449    1.0000 </r>
       <r>  -18.9206    1.0000 </r>
       <r>  -18.8570    1.0000 </r>
       <r>  -18.7950    1.0000 </r>
       <r>  -18.6595    1.0000 </r>
       <r>  -18.6118    1.0000 </r>
       <r>  -18.4840    1.0000 </r>
       <r>  -18.2753    1.0000 </r>
       <r>  -18.2052    1.0000 </r>
       <r>  -18.1866    1.0000 </r>
       <r>  -18.1194    1.0000 </r>
       <r>  -18.0308    1.0000 </r>
       <r>  -17.6573    1.0000 </r>
       <r>  -16.9770    1.0000 </r>
       <r>  -16.9550    1.0000 </r>
       <r>  -16.9133    1.0000 </r>
       <r>  -16.3810    1.0000 </r>
       <r>  -16.2492    1.0000 </r>
       <r>  -16.1658    1.0000 </r>
       <r>  -16.0711    1.0000 </r>
       <r>  -15.9803    1.0000 </r>
       <r>  -15.6558    1.0000 </r>
       <r>  -15.5725    1.0000 </r>
       <r>  -15.4984    1.0000 </r>
       <r>  -15.3922    1.0000 </r>
       <r>  -15.1376    1.0000 </r>
       <r>  -15.0216    1.0000 </r>
       <r>  -14.8316    1.0000 </r>
       <r>  -14.6123    1.0000 </r>
       <r>  -14.3234    1.0000 </r>
       <r>  -14.1796    1.0000 </r>
       <r>  -14.1216    1.0000 </r>
       <r>  -13.9834    1.0000 </r>
       <r>  -13.9085    1.0000 </r>
       <r>  -13.8125    1.0000 </r>
       <r>  -13.7868    1.0000 </r>
       <r>  -13.6822    1.0000 </r>
       <r>  -13.5806    1.0000 </r>
       <r>  -13.4303    1.0000 </r>
       <r>  -13.3909    1.0000 </r>
       <r>  -13.3418    1.0000 </r>
       <r>  -13.2425    1.0000 </r>
       <r>  -13.1991    1.0000 </r>
       <r>  -13.1572    1.0000 </r>
       <r>  -13.0656    1.0000 </r>
       <r>  -12.8191    1.0000 </r>
       <r>  -12.7777    1.0000 </r>
       <r>  -12.7745    1.0000 </r>
       <r>  -12.6950    1.0000 </r>
       <r>  -12.6071    1.0000 </r>
       <r>  -12.5035    1.0000 </r>
       <r>  -12.4403    1.0000 </r>
       <r>  -12.3946    1.0000 </r>
       <r>  -12.3545    1.0000 </r>
       <r>  -12.3041    1.0000 </r>
       <r>  -12.2716    1.0000 </r>
       <r>  -12.2575    1.0000 </r>
       <r>  -12.2290    1.0000 </r>
       <r>  -12.1756    1.0000 </r>
       <r>  -12.1471    1.0000 </r>
       <r>  -12.1316    1.0000 </r>
       <r>  -12.0851    1.0000 </r>
       <r>  -12.0242    1.0000 </r>
       <r>  -12.0147    1.0000 </r>
       <r>  -11.9572    1.0000 </r>
       <r>  -11.8928    1.0000 </r>
       <r>  -11.8340    1.0000 </r>
       <r>  -11.5262    1.0000 </r>
       <r>  -11.3672    1.0000 </r>
       <r>  -11.3300    1.0000 </r>
       <r>  -11.3096    1.0000 </r>
       <r>  -11.2141    1.0000 </r>
       <r>  -11.1032    1.0000 </r>
       <r>  -11.0978    1.0000 </r>
       <r>  -11.0047    1.0000 </r>
       <r>  -10.9766    1.0000 </r>
       <r>  -10.8946    1.0000 </r>
       <r>  -10.6895    1.0000 </r>
       <r>  -10.6003    1.0000 </r>
       <r>  -10.3938    1.0000 </r>
       <r>  -10.2578    1.0000 </r>
       <r>  -10.2434    1.0000 </r>
       <r>  -10.1863    1.0000 </r>
       <r>   -9.6652    1.0000 </r>
       <r>   -9.6298    1.0000 </r>
       <r>   -9.5716    1.0000 </r>
       <r>   -9.4344    1.0000 </r>
       <r>   -9.3984    1.0000 </r>
       <r>   -9.3163    1.0000 </r>
       <r>   -9.2731    1.0000 </r>
       <r>   -9.2148    1.0000 </r>
       <r>   -9.1067    1.0000 </r>
       <r>   -8.8681    1.0000 </r>
       <r>   -8.7484    1.0000 </r>
       <r>   -8.7363    1.0000 </r>
       <r>   -8.7169    1.0000 </r>
       <r>   -8.6712    1.0000 </r>
       <r>   -8.6144    1.0000 </r>
       <r>   -8.5456    1.0000 </r>
       <r>   -8.5357    1.0000 </r>
       <r>   -8.4587    1.0000 </r>
       <r>   -7.8631    1.0000 </r>
       <r>   -7.8209    1.0000 </r>
       <r>   -7.7105    1.0000 </r>
       <r>   -7.6872    1.0000 </r>
       <r>   -7.6489    1.0000 </r>
       <r>   -7.5941    1.0000 </r>
       <r>   -7.5647    1.0000 </r>
       <r>   -7.5356    1.0000 </r>
       <r>   -7.5121    1.0000 </r>
       <r>   -7.4751    1.0000 </r>
       <r>   -7.4370    1.0000 </r>
       <r>   -7.4077    1.0000 </r>
       <r>   -7.3297    1.0000 </r>
       <r>   -7.3246    1.0000 </r>
       <r>   -7.3103    1.0000 </r>
       <r>   -7.2944    1.0000 </r>
       <r>   -7.2734    1.0000 </r>
       <r>   -7.2297    1.0000 </r>
       <r>   -7.2003    1.0000 </r>
       <r>   -7.1573    1.0000 </r>
       <r>   -7.1499    1.0000 </r>
       <r>   -7.1444    1.0000 </r>
       <r>   -7.0903    1.0000 </r>
       <r>   -7.0594    1.0000 </r>
       <r>   -6.8091    1.0000 </r>
       <r>   -6.7540    1.0000 </r>
       <r>   -6.6748    1.0000 </r>
       <r>   -6.6184    1.0000 </r>
       <r>   -6.6116    1.0000 </r>
       <r>   -6.5619    1.0000 </r>
       <r>   -6.5463    1.0000 </r>
       <r>   -6.5140    1.0000 </r>
       <r>   -6.4440    1.0000 </r>
       <r>   -6.3907    1.0000 </r>
       <r>   -6.3844    1.0000 </r>
       <r>   -6.3571    1.0000 </r>
       <r>   -6.3532    1.0000 </r>
       <r>   -6.3070    1.0000 </r>
       <r>   -6.2263    1.0000 </r>
       <r>   -6.1885    1.0000 </r>
       <r>   -6.1005    1.0000 </r>
       <r>   -6.0599    1.0000 </r>
       <r>   -5.9310    1.0000 </r>
       <r>   -5.9101    1.0000 </r>
       <r>   -4.1022    0.0000 </r>
       <r>   -4.0509    0.0000 </r>
       <r>   -4.0321    0.0000 </r>
       <r>   -3.7725    0.0000 </r>
       <r>   -3.6315    0.0000 </r>
       <r>   -3.3214    0.0000 </r>
       <r>   -3.2291    0.0000 </r>
       <r>   -3.1539    0.0000 </r>
       <r>   -3.0282    0.0000 </r>
       <r>   -3.0189    0.0000 </r>
       <r>   -2.7245    0.0000 </r>
       <r>   -2.6901    0.0000 </r>
       <r>   -2.6195    0.0000 </r>
       <r>   -2.5975    0.0000 </r>
       <r>   -2.5562    0.0000 </r>
       <r>   -2.5382    0.0000 </r>
       <r>   -2.5042    0.0000 </r>
       <r>   -2.4197    0.0000 </r>
       <r>   -2.3515    0.0000 </r>
       <r>   -2.2948    0.0000 </r>
       <r>   -2.1248    0.0000 </r>
       <r>   -1.7001    0.0000 </r>
       <r>   -1.2375    0.0000 </r>
       <r>   -0.6786    0.0000 </r>
       <r>   -0.5080    0.0000 </r>
       <r>   -0.4267    0.0000 </r>
       <r>   -0.2185    0.0000 </r>
       <r>   -0.0893    0.0000 </r>
       <r>    0.2044    0.0000 </r>
       <r>    0.2896    0.0000 </r>
       <r>    0.4752    0.0000 </r>
       <r>    0.5397    0.0000 </r>
       <r>    0.5847    0.0000 </r>
       <r>    0.6506    0.0000 </r>
       <r>    0.6634    0.0000 </r>
       <r>    0.7054    0.0000 </r>
       <r>    0.7613    0.0000 </r>
       <r>    0.8199    0.0000 </r>
       <r>    0.8725    0.0000 </r>
       <r>    0.9449    0.0000 </r>
       <r>    1.0179    0.0000 </r>
       <r>    1.0759    0.0000 </r>
       <r>    1.1388    0.0000 </r>
       <r>    1.1629    0.0000 </r>
       <r>    1.2041    0.0000 </r>
       <r>    1.2519    0.0000 </r>
       <r>    1.2770    0.0000 </r>
       <r>    1.3644    0.0000 </r>
       <r>    1.3805    0.0000 </r>
       <r>    1.3824    0.0000 </r>
       <r>    1.4124    0.0000 </r>
       <r>    1.4580    0.0000 </r>
       <r>    1.4769    0.0000 </r>
       <r>    1.5183    0.0000 </r>
      </set>
      <set comment="kpoint 2">
       <r>  -30.8083    1.0000 </r>
       <r>  -30.7916    1.0000 </r>
       <r>  -30.6454    1.0000 </r>
       <r>  -30.5918    1.0000 </r>
       <r>  -30.5853    1.0000 </r>
       <r>  -30.5615    1.0000 </r>
       <r>  -26.5015    1.0000 </r>
       <r>  -26.4765    1.0000 </r>
       <r>  -26.3393    1.0000 </r>
       <r>  -26.2922    1.0000 </r>
       <r>  -26.2784    1.0000 </r>
       <r>  -26.2680    1.0000 </r>
       <r>  -26.2602    1.0000 </r>
       <r>  -26.2408    1.0000 </r>
       <r>  -26.2021    1.0000 </r>
       <r>  -26.1466    1.0000 </r>
       <r>  -25.4913    1.0000 </r>
       <r>  -25.4305    1.0000 </r>
       <r>  -25.3633    1.0000 </r>
       <r>  -25.3279    1.0000 </r>
       <r>  -25.2268    1.0000 </r>
       <r>  -25.1790    1.0000 </r>
       <r>  -23.7378    1.0000 </r>
       <r>  -23.6200    1.0000 </r>
       <r>  -23.5963    1.0000 </r>
       <r>  -23.5259    1.0000 </r>
       <r>  -23.4660    1.0000 </r>
       <r>  -23.3900    1.0000 </r>
       <r>  -23.0840    1.0000 </r>
       <r>  -23.0634    1.0000 </r>
       <r>  -23.0062    1.0000 </r>
       <r>  -22.9934    1.0000 </r>
       <r>  -22.9591    1.0000 </r>
       <r>  -22.9113    1.0000 </r>
       <r>  -22.8459    1.0000 </r>
       <r>  -22.7539    1.0000 </r>
       <r>  -20.7934    1.0000 </r>
       <r>  -20.7039    1.0000 </r>
       <r>  -20.6648    1.0000 </r>
       <r>  -20.5813    1.0000 </r>
       <r>  -20.5646    1.0000 </r>
       <r>  -20.5448    1.0000 </r>
       <r>  -18.9202    1.0000 </r>
       <r>  -18.8563    1.0000 </r>
       <r>  -18.7948    1.0000 </r>
       <r>  -18.6597    1.0000 </r>
       <r>  -18.6120    1.0000 </r>
       <r>  -18.4842    1.0000 </r>
       <r>  -18.2746    1.0000 </r>
       <r>  -18.2066    1.0000 </r>
       <r>  -18.1861    1.0000 </r>
       <r>  -18.1196    1.0000 </r>
       <r>  -18.0311    1.0000 </r>
       <r>  -17.6589    1.0000 </r>
       <r>  -16.9792    1.0000 </r>
       <r>  -16.9535    1.0000 </r>
       <r>  -16.9104    1.0000 </r>
       <r>  -16.3807    1.0000 </r>
       <r>  -16.2498    1.0000 </r>
       <r>  -16.1659    1.0000 </r>
       <r>  -16.0709    1.0000 </r>
       <r>  -15.9797    1.0000 </r>
       <r>  -15.6561    1.0000 </r>
       <r>  -15.5729    1.0000 </r>
       <r>  -15.4982    1.0000 </r>
       <r>  -15.3925    1.0000 </r>
       <r>  -15.1380    1.0000 </r>
       <r>  -15.0226    1.0000 </r>
       <r>  -14.8301    1.0000 </r>
       <r>  -14.6121    1.0000 </r>
       <r>  -14.3235    1.0000 </r>
       <r>  -14.1800    1.0000 </r>
       <r>  -14.1215    1.0000 </r>
       <r>  -13.9833    1.0000 </r>
       <r>  -13.9095    1.0000 </r>
       <r>  -13.8215    1.0000 </r>
       <r>  -13.7810    1.0000 </r>
       <r>  -13.6802    1.0000 </r>
       <r>  -13.5794    1.0000 </r>
       <r>  -13.4304    1.0000 </r>
       <r>  -13.3904    1.0000 </r>
       <r>  -13.3417    1.0000 </r>
       <r>  -13.2425    1.0000 </r>
       <r>  -13.1988    1.0000 </r>
       <r>  -13.1572    1.0000 </r>
       <r>  -13.0660    1.0000 </r>
       <r>  -12.8190    1.0000 </r>
       <r>  -12.7777    1.0000 </r>
       <r>  -12.7745    1.0000 </r>
       <r>  -12.6951    1.0000 </r>
       <r>  -12.6070    1.0000 </r>
       <r>  -12.5034    1.0000 </r>
       <r>  -12.4405    1.0000 </r>
       <r>  -12.3945    1.0000 </r>
       <r>  -12.3535    1.0000 </r>
       <r>  -12.3041    1.0000 </r>
       <r>  -12.2715    1.0000 </r>
       <r>  -12.2575    1.0000 </r>
       <r>  -12.2291    1.0000 </r>
       <r>  -12.1755    1.0000 </r>
       <r>  -12.1473    1.0000 </r>
       <r>  -12.1315    1.0000 </r>
       <r>  -12.0852    1.0000 </r>
       <r>  -12.0241    1.0000 </r>
       <r>  -12.0146    1.0000 </r>
       <r>  -11.9572    1.0000 </r>
       <r>  -11.8930    1.0000 </r>
       <r>  -11.8343    1.0000 </r>
       <r>  -11.5260    1.0000 </r>
       <r>  -11.3673    1.0000 </r>
       <r>  -11.3298    1.0000 </r>
       <r>  -11.3087    1.0000 </r>
       <r>  -11.2145    1.0000 </r>
       <r>  -11.1039    1.0000 </r>
       <r>  -11.0992    1.0000 </r>
       <r>  -11.0145    1.0000 </r>
       <r>  -10.9661    1.0000 </r>
       <r>  -10.8938    1.0000 </r>
       <r>  -10.6908    1.0000 </r>
       <r>  -10.6002    1.0000 </r>
       <r>  -10.3937    1.0000 </r>
       <r>  -10.2582    1.0000 </r>
       <r>  -10.2437    1.0000 </r>
       <r>  -10.1859    1.0000 </r>
       <r>   -9.6643    1.0000 </r>
       <r>   -9.6292    1.0000 </r>
       <r>   -9.5715    1.0000 </r>
       <r>   -9.4343    1.0000 </r>
       <r>   -9.3984    1.0000 </r>
       <r>   -9.3163    1.0000 </r>
       <r>   -9.2733    1.0000 </r>
       <r>   -9.2149    1.0000 </r>
       <r>   -9.1065    1.0000 </r>
       <r>   -8.8685    1.0000 </r>
       <r>   -8.7486    1.0000 </r>
       <r>   -8.7365    1.0000 </r>
       <r>   -8.7171    1.0000 </r>
       <r>   -8.6716    1.0000 </r>
       <r>   -8.6144    1.0000 </r>
       <r>   -8.5458    1.0000 </r>
       <r>   -8.5356    1.0000 </r>
       <r>   -8.4585    1.0000 </r>
       <r>   -7.8631    1.0000 </r>
       <r>   -7.8209    1.0000 </r>
       <r>   -7.7103    1.0000 </r>
       <r>   -7.6873    1.0000 </r>
       <r>   -7.6488    1.0000 </r>
       <r>   -7.5938    1.0000 </r>
       <r>   -7.5646    1.0000 </r>
       <r>   -7.5358    1.0000 </r>
       <r>   -7.5121    1.0000 </r>
       <r>   -7.4752    1.0000 </r>
       <r>   -7.4370    1.0000 </r>
       <r>   -7.4075    1.0000 </r>
       <r>   -7.3299    1.0000 </r>
       <r>   -7.3246    1.0000 </r>
       <r>   -7.3103    1.0000 </r>
       <r>   -7.2943    1.0000 </r>
       <r>   -7.2735    1.0000 </r>
       <r>   -7.2297    1.0000 </r>
       <r>   -7.2003    1.0000 </r>
       <r>   -7.1577    1.0000 </r>
       <r>   -7.1500    1.0000 </r>
       <r>   -7.1441    1.0000 </r>
       <r>   -7.0904    1.0000 </r>
       <r>   -7.0594    1.0000 </r>
       <r>   -6.8089    1.0000 </r>
       <r>   -6.7539    1.0000 </r>
       <r>   -6.6749    1.0000 </r>
       <r>   -6.6187    1.0000 </r>
       <r>   -6.6116    1.0000 </r>
       <r>   -6.5619    1.0000 </r>
       <r>   -6.5460    1.0000 </r>
       <r>   -6.5139    1.0000 </r>
       <r>   -6.4440    1.0000 </r>
       <r>   -6.3908    1.0000 </r>
       <r>   -6.3844    1.0000 </r>
       <r>   -6.3573    1.0000 </r>
       <r>   -6.3532    1.0000 </r>
       <r>   -6.3072    1.0000 </r>
       <r>   -6.2265    1.0000 </r>
       <r>   -6.1885    1.0000 </r>
       <r>   -6.1005    1.0000 </r>
       <r>   -6.0598    1.0000 </r>
       <r>   -5.9310    1.0000 </r>
       <r>   -5.9100    1.0000 </r>
       <r>   -4.1017    0.0000 </r>
       <r>   -4.0504    0.0000 </r>
       <r>   -4.0320    0.0000 </r>
       <r>   -3.7735    0.0000 </r>
       <r>   -3.6306    0.0000 </r>
       <r>   -3.3214    0.0000 </r>
       <r>   -3.2293    0.0000 </r>
       <r>   -3.1541    0.0000 </r>
       <r>   -3.0291    0.0000 </r>
       <r>   -3.0222    0.0000 </r>
       <r>   -2.7244    0.0000 </r>
       <r>   -2.6901    0.0000 </r>
       <r>   -2.6194    0.0000 </r>
       <r>   -2.5974    0.0000 </r>
       <r>   -2.5609    0.0000 </r>
       <r>   -2.5349    0.0000 </r>
       <r>   -2.5015    0.0000 </r>
       <r>   -2.4192    0.0000 </r>
       <r>   -2.3509    0.0000 </r>
       <r>   -2.2936    0.0000 </r>
       <r>   -2.1233    0.0000 </r>
       <r>   -1.7005    0.0000 </r>
       <r>   -1.2370    0.0000 </r>
       <r>   -0.6788    0.0000 </r>
       <r>   -0.5095    0.0000 </r>
       <r>   -0.4306    0.0000 </r>
       <r>   -0.2181    0.0000 </r>
       <r>   -0.0893    0.0000 </r>
       <r>    0.2049    0.0000 </r>
       <r>    0.2943    0.0000 </r>
       <r>    0.4733    0.0000 </r>
       <r>    0.5358    0.0000 </r>
       <r>    0.5847    0.0000 </r>
       <r>    0.6438    0.0000 </r>
       <r>    0.6727    0.0000 </r>
       <r>    0.7055    0.0000 </r>
       <r>    0.7648    0.0000 </r>
       <r>    0.8201    0.0000 </r>
       <r>    0.8734    0.0000 </r>
       <r>    0.9441    0.0000 </r>
       <r>    1.0181    0.0000 </r>
       <r>    1.0764    0.0000 </r>
       <r>    1.1399    0.0000 </r>
       <r>    1.1623    0.0000 </r>
       <r>    1.2045    0.0000 </r>
       <r>    1.2497    0.0000 </r>
       <r>    1.2796    0.0000 </r>
       <r>    1.3566    0.0000 </r>
       <r>    1.3724    0.0000 </r>
       <r>    1.3888    0.0000 </r>
       <r>    1.4190    0.0000 </r>
       <r>    1.4649    0.0000 </r>
       <r>    1.4828    0.0000 </r>
       <r>    1.5276    0.0000 </r>
      </set>
      <set comment="kpoint 3">
       <r>  -30.8083    1.0000 </r>
       <r>  -30.7916    1.0000 </r>
       <r>  -30.6454    1.0000 </r>
       <r>  -30.5918    1.0000 </r>
       <r>  -30.5853    1.0000 </r>
       <r>  -30.5615    1.0000 </r>
       <r>  -26.5015    1.0000 </r>
       <r>  -26.4765    1.0000 </r>
       <r>  -26.3393    1.0000 </r>
       <r>  -26.2922    1.0000 </r>
       <r>  -26.2784    1.0000 </r>
       <r>  -26.2679    1.0000 </r>
       <r>  -26.2602    1.0000 </r>
       <r>  -26.2407    1.0000 </r>
       <r>  -26.2023    1.0000 </r>
       <r>  -26.1468    1.0000 </r>
       <r>  -25.4914    1.0000 </r>
       <r>  -25.4302    1.0000 </r>
       <r>  -25.3630    1.0000 </r>
       <r>  -25.3276    1.0000 </r>
       <r>  -25.2268    1.0000 </r>
       <r>  -25.1798    1.0000 </r>
       <r>  -23.7377    1.0000 </r>
       <r>  -23.6195    1.0000 </r>
       <r>  -23.5966    1.0000 </r>
       <r>  -23.5256    1.0000 </r>
       <r>  -23.4663    1.0000 </r>
       <r>  -23.3901    1.0000 </r>
       <r>  -23.0841    1.0000 </r>
       <r>  -23.0638    1.0000 </r>
       <r>  -23.0076    1.0000 </r>
       <r>  -22.9932    1.0000 </r>
       <r>  -22.9576    1.0000 </r>
       <r>  -22.9112    1.0000 </r>
       <r>  -22.8458    1.0000 </r>
       <r>  -22.7542    1.0000 </r>
       <r>  -20.7933    1.0000 </r>
       <r>  -20.7039    1.0000 </r>
       <r>  -20.6651    1.0000 </r>
       <r>  -20.5813    1.0000 </r>
       <r>  -20.5648    1.0000 </r>
       <r>  -20.5447    1.0000 </r>
       <r>  -18.9191    1.0000 </r>
       <r>  -18.8540    1.0000 </r>
       <r>  -18.7942    1.0000 </r>
       <r>  -18.6603    1.0000 </r>
       <r>  -18.6125    1.0000 </r>
       <r>  -18.4850    1.0000 </r>
       <r>  -18.2725    1.0000 </r>
       <r>  -18.2102    1.0000 </r>
       <r>  -18.1849    1.0000 </r>
       <r>  -18.1199    1.0000 </r>
       <r>  -18.0319    1.0000 </r>
       <r>  -17.6639    1.0000 </r>
       <r>  -16.9845    1.0000 </r>
       <r>  -16.9498    1.0000 </r>
       <r>  -16.9022    1.0000 </r>
       <r>  -16.3798    1.0000 </r>
       <r>  -16.2515    1.0000 </r>
       <r>  -16.1660    1.0000 </r>
       <r>  -16.0702    1.0000 </r>
       <r>  -15.9779    1.0000 </r>
       <r>  -15.6570    1.0000 </r>
       <r>  -15.5743    1.0000 </r>
       <r>  -15.4978    1.0000 </r>
       <r>  -15.3933    1.0000 </r>
[...]
       <r>   -30.5275    50.4869    12.0000 </r>
       <r>   -30.4086     0.0000    12.0000 </r>
       <r>   -30.2898     0.0000    12.0000 </r>
       <r>   -30.1709     0.0000    12.0000 </r>
       <r>   -30.0521     0.0000    12.0000 </r>
       <r>   -29.9332     0.0000    12.0000 </r>
       <r>   -29.8144     0.0000    12.0000 </r>
       <r>   -29.6956     0.0000    12.0000 </r>
       <r>   -29.5767     0.0000    12.0000 </r>
       <r>   -29.4579     0.0000    12.0000 </r>
       <r>   -29.3390     0.0000    12.0000 </r>
       <r>   -29.2202     0.0000    12.0000 </r>
       <r>   -29.1014     0.0000    12.0000 </r>
       <r>   -28.9825     0.0000    12.0000 </r>
       <r>   -28.8637     0.0000    12.0000 </r>
       <r>   -28.7448     0.0000    12.0000 </r>
       <r>   -28.6260     0.0000    12.0000 </r>
       <r>   -28.5071     0.0000    12.0000 </r>
       <r>   -28.3883     0.0000    12.0000 </r>
       <r>   -28.2695     0.0000    12.0000 </r>
       <r>   -28.1506     0.0000    12.0000 </r>
       <r>   -28.0318     0.0000    12.0000 </r>
       <r>   -27.9129     0.0000    12.0000 </r>
       <r>   -27.7941     0.0000    12.0000 </r>
       <r>   -27.6752     0.0000    12.0000 </r>
       <r>   -27.5564     0.0000    12.0000 </r>
       <r>   -27.4376     0.0000    12.0000 </r>
       <r>   -27.3187     0.0000    12.0000 </r>
       <r>   -27.1999     0.0000    12.0000 </r>
       <r>   -27.0810     0.0000    12.0000 </r>
       <r>   -26.9622     0.0000    12.0000 </r>
       <r>   -26.8433     0.0000    12.0000 </r>
       <r>   -26.7245     0.0000    12.0000 </r>
       <r>   -26.6057     0.0000    12.0000 </r>
       <r>   -26.4868    17.7163    14.1055 </r>
       <r>   -26.3680     0.0004    16.0001 </r>
       <r>   -26.2491    66.9693    25.9588 </r>
       <r>   -26.1303    23.3743    31.9945 </r>
       <r>   -26.0114     0.0000    32.0000 </r>
       <r>   -25.8926     0.0000    32.0000 </r>
       <r>   -25.7738     0.0000    32.0000 </r>
       <r>   -25.6549     0.0000    32.0000 </r>
       <r>   -25.5361     0.0000    32.0000 </r>
       <r>   -25.4172    27.5038    35.2686 </r>
       <r>   -25.2984    25.4529    39.0249 </r>
       <r>   -25.1795    32.2762    43.8358 </r>
       <r>   -25.0607     0.0000    44.0000 </r>
       <r>   -24.9419     0.0000    44.0000 </r>
       <r>   -24.8230     0.0000    44.0000 </r>
       <r>   -24.7042     0.0000    44.0000 </r>
       <r>   -24.5853     0.0000    44.0000 </r>
       <r>   -24.4665     0.0000    44.0000 </r>
       <r>   -24.3476     0.0000    44.0000 </r>
       <r>   -24.2288     0.0000    44.0000 </r>
       <r>   -24.1100     0.0000    44.0000 </r>
       <r>   -23.9911     0.0000    44.0000 </r>
       <r>   -23.8723     0.0000    44.0000 </r>
       <r>   -23.7534     0.0485    44.0058 </r>
       <r>   -23.6346     4.7714    46.5670 </r>
       <r>   -23.5157    23.4681    51.0390 </r>
       <r>   -23.3969    15.0771    55.0085 </r>
       <r>   -23.2781     0.0000    56.0000 </r>
       <r>   -23.1592     0.0000    56.0000 </r>
       <r>   -23.0404    35.3466    60.2007 </r>
       <r>   -22.9215    26.0868    65.1002 </r>
       <r>   -22.8027    16.8290    70.0000 </r>
       <r>   -22.6838     6.4511    72.0000 </r>
       <r>   -22.5650     0.0000    72.0000 </r>
       <r>   -22.4462     0.0000    72.0000 </r>
       <r>   -22.3273     0.0000    72.0000 </r>
       <r>   -22.2085     0.0000    72.0000 </r>
       <r>   -22.0896     0.0000    72.0000 </r>
       <r>   -21.9708     0.0000    72.0000 </r>
       <r>   -21.8520     0.0000    72.0000 </r>
       <r>   -21.7331     0.0000    72.0000 </r>
       <r>   -21.6143     0.0000    72.0000 </r>
       <r>   -21.4954     0.0000    72.0000 </r>
       <r>   -21.3766     0.0000    72.0000 </r>
       <r>   -21.2577     0.0000    72.0000 </r>
       <r>   -21.1389     0.0000    72.0000 </r>
       <r>   -21.0201     0.0000    72.0000 </r>
       <r>   -20.9012     0.0000    72.0000 </r>
       <r>   -20.7824    15.7250    73.8688 </r>
       <r>   -20.6635    29.4232    77.4967 </r>
       <r>   -20.5447    40.5741    82.8219 </r>
       <r>   -20.4258     0.0000    84.0000 </r>
       <r>   -20.3070     0.0000    84.0000 </r>
       <r>   -20.1882     0.0000    84.0000 </r>
       <r>   -20.0693     0.0000    84.0000 </r>
       <r>   -19.9505     0.0000    84.0000 </r>
       <r>   -19.8316     0.0000    84.0000 </r>
       <r>   -19.7128     0.0000    84.0000 </r>
       <r>   -19.5939     0.0000    84.0000 </r>
       <r>   -19.4751     0.0000    84.0000 </r>
       <r>   -19.3563     0.0000    84.0000 </r>
       <r>   -19.2374     0.0000    84.0000 </r>
       <r>   -19.1186     0.0000    84.0000 </r>
       <r>   -18.9997     0.0000    84.0000 </r>
       <r>   -18.8809     5.8691    84.6975 </r>
       <r>   -18.7620    20.5423    88.6913 </r>
       <r>   -18.6432    17.7451    91.3922 </r>
       <r>   -18.5244    17.0101    95.0215 </r>
       <r>   -18.4055     3.8658    96.3094 </r>
       <r>   -18.2867     4.0839    97.4353 </r>
       <r>   -18.1678    33.0954   101.9331 </r>
       <r>   -18.0490     3.5972   104.0942 </r>
       <r>   -17.9301     4.8302   105.7740 </r>
       <r>   -17.8113    12.8689   107.4294 </r>
       <r>   -17.6925     1.8280   107.7839 </r>
       <r>   -17.5736     0.0000   108.0000 </r>
       <r>   -17.4548     0.0000   108.0000 </r>
       <r>   -17.3359     0.0000   108.0000 </r>
       <r>   -17.2171     0.0000   108.0000 </r>
       <r>   -17.0982     0.0000   108.0000 </r>
       <r>   -16.9794    16.3664   109.9450 </r>
       <r>   -16.8606    13.7041   111.7786 </r>
       <r>   -16.7417     1.2845   112.4527 </r>
       <r>   -16.6229    12.1493   113.9605 </r>
       <r>   -16.5040     1.2390   114.3139 </r>
       <r>   -16.3852     5.6274   115.0521 </r>
       <r>   -16.2663     1.1660   116.1386 </r>
       <r>   -16.1475    22.8330   119.9969 </r>
       <r>   -16.0287    15.7748   121.8747 </r>
       <r>   -15.9098     6.8160   122.8100 </r>
       <r>   -15.7910     0.0000   124.0000 </r>
       <r>   -15.6721     2.9441   125.4166 </r>
       <r>   -15.5533    16.8154   127.9984 </r>
       <r>   -15.4344    18.0140   130.1408 </r>
       <r>   -15.3156     1.2622   132.0000 </r>
       <r>   -15.1968     4.0869   132.4857 </r>
       <r>   -15.0779    17.9137   135.4289 </r>
       <r>   -14.9591     2.2439   136.0000 </r>
       <r>   -14.8402     0.0837   136.0099 </r>
       <r>   -14.7214     2.9276   136.6146 </r>
       <r>   -14.6026    12.1779   138.2973 </r>
       <r>   -14.4837     9.6751   139.9998 </r>
       <r>   -14.3649     7.7460   140.9206 </r>
       <r>   -14.2460    16.0782   143.1941 </r>
       <r>   -14.1272    17.8633   145.4563 </r>
       <r>   -14.0083    13.6123   147.7344 </r>
       <r>   -13.8895    15.0202   150.8017 </r>
       <r>   -13.7707    15.2261   153.3595 </r>
       <r>   -13.6518     2.3702   154.2317 </r>
       <r>   -13.5330    15.3520   156.5411 </r>
       <r>   -13.4141    22.4448   159.3507 </r>
       <r>   -13.2953    27.8664   163.8784 </r>
       <r>   -13.1764    32.7100   167.8873 </r>
       <r>   -13.0576    10.0637   171.9793 </r>
       <r>   -12.9388     0.0000   172.0000 </r>
       <r>   -12.8199     2.4730   172.2939 </r>
       <r>   -12.7011    39.6618   178.7135 </r>
       <r>   -12.5822    16.8195   181.9989 </r>
       <r>   -12.4634    19.9078   184.3659 </r>
       <r>   -12.3445    21.4749   188.5521 </r>
       <r>   -12.2257    51.8691   196.2809 </r>
       <r>   -12.1069    53.2756   203.2814 </r>
       <r>   -11.9880    33.2821   209.9553 </r>
       <r>   -11.8692    25.9549   214.7679 </r>
       <r>   -11.7503     0.0000   216.0000 </r>
       <r>   -11.6315     0.0000   216.0000 </r>
       <r>   -11.5126    12.5774   217.4947 </r>
       <r>   -11.3938     5.1278   219.4261 </r>
       <r>   -11.2750    23.6088   224.0891 </r>
       <r>   -11.1561    17.9844   226.5040 </r>
       <r>   -11.0373    32.5396   231.7504 </r>
       <r>   -10.9184    12.4142   233.4753 </r>
       <r>   -10.7996     6.6797   235.7438 </r>
       <r>   -10.6807    17.0710   238.0954 </r>
       <r>   -10.5619    13.7437   240.0000 </r>
       <r>   -10.4431     0.0000   240.0000 </r>
       <r>   -10.3242    17.3143   242.0577 </r>
       <r>   -10.2054    22.1266   246.0296 </r>
       <r>   -10.0865    10.9388   248.0000 </r>
       <r>    -9.9677     0.0000   248.0000 </r>
       <r>    -9.8488     0.0000   248.0000 </r>
       <r>    -9.7300     0.0000   248.0000 </r>
       <r>    -9.6112    20.9415   250.4887 </r>
       <r>    -9.4923    16.3088   252.6548 </r>
       <r>    -9.3735    34.0614   256.9313 </r>
       <r>    -9.2546    30.1484   261.9996 </r>
       <r>    -9.1358     0.9817   264.0000 </r>
       <r>    -9.0169    13.3088   266.5150 </r>
       <r>    -8.8981     4.9592   267.6560 </r>
       <r>    -8.7793     7.3319   268.8713 </r>
       <r>    -8.6604    37.5885   275.9838 </r>
       <r>    -8.5416    33.1017   279.9339 </r>
       <r>    -8.4227    16.8262   283.9997 </r>
       <r>    -8.3039     0.0000   284.0000 </r>
       <r>    -8.1850     0.0000   284.0000 </r>
       <r>    -8.0662     0.0000   284.0000 </r>
       <r>    -7.9474     0.0000   284.0000 </r>
       <r>    -7.8285    20.1716   286.3972 </r>
       <r>    -7.7097     3.1938   288.3796 </r>
       <r>    -7.5908    25.3437   294.7452 </r>
       <r>    -7.4720    49.3455   303.8143 </r>
       <r>    -7.3532    33.6096   308.6443 </r>
       <r>    -7.2343    51.7151   319.3626 </r>
       <r>    -7.1155    53.2548   327.9956 </r>
       <r>    -6.9966    16.8290   332.0000 </r>
       <r>    -6.8778     0.0000   332.0000 </r>
       <r>    -6.7589    18.0798   334.1487 </r>
       <r>    -6.6401    27.4076   339.2572 </r>
       <r>    -6.5213    24.0988   344.8640 </r>
       <r>    -6.4024    32.3355   350.6762 </r>
       <r>    -6.2836    38.6942   359.9985 </r>
       <r>    -6.1647    23.6962   363.9995 </r>
       <r>    -6.0459    32.3208   367.8411 </r>
       <r>    -5.9270    10.6684   369.2679 </r>
       <r>    -5.8082     0.0000   372.0000 </r>
       <r>    -5.6894     0.0000   372.0000 </r>
       <r>    -5.5705     0.0000   372.0000 </r>
       <r>    -5.4517     0.0000   372.0000 </r>
       <r>    -5.3328     0.0000   372.0000 </r>
       <r>    -5.2140     0.0000   372.0000 </r>
       <r>    -5.0951     0.0000   372.0000 </r>
       <r>    -4.9763     0.0000   372.0000 </r>
       <r>    -4.8575     0.0000   372.0000 </r>
       <r>    -4.7386     0.0000   372.0000 </r>
       <r>    -4.6198     0.0000   372.0000 </r>
       <r>    -4.5009     0.0000   372.0000 </r>
       <r>    -4.3821     0.0000   372.0000 </r>
       <r>    -4.2632     0.0000   372.0000 </r>
       <r>    -4.1444     0.0000   372.0000 </r>
       <r>    -4.0256    27.9067   375.3165 </r>
       <r>    -3.9067     4.8274   377.1070 </r>
       <r>    -3.7879    12.5448   379.8575 </r>
       <r>    -3.6690     0.0000   380.0000 </r>
       <r>    -3.5502    12.6252   381.5504 </r>
       <r>    -3.4313     3.4258   383.0738 </r>
       <r>    -3.3125    14.2443   385.0262 </r>
       <r>    -3.1937    18.7616   387.6297 </r>
       <r>    -3.0748    15.7759   389.7749 </r>
       <r>    -2.9560    14.3046   392.0000 </r>
       <r>    -2.8371     0.0000   392.0000 </r>
       <r>    -2.7183    19.4394   394.3102 </r>
       <r>    -2.5994    20.4890   399.7016 </r>
       <r>    -2.4806    30.9253   404.1252 </r>
       <r>    -2.3618    20.7110   406.7947 </r>
       <r>    -2.2429    14.6361   410.6227 </r>
       <r>    -2.1241     0.5668   412.0674 </r>
       <r>    -2.0052     1.8890   412.5078 </r>
       <r>    -1.8864     2.1322   412.9201 </r>
       <r>    -1.7675     1.7268   413.2219 </r>
       <r>    -1.6487    13.4214   414.9117 </r>
       <r>    -1.5299     0.0000   416.0000 </r>
       <r>    -1.4110     0.0000   416.0000 </r>
       <r>    -1.2922     0.0000   416.0000 </r>
       <r>    -1.1733    12.8423   417.5262 </r>
       <r>    -1.0545     1.9765   418.8849 </r>
       <r>    -0.9356     2.6710   419.3174 </r>
       <r>    -0.8168     1.4293   419.5699 </r>
       <r>    -0.6980     3.9625   420.0876 </r>
       <r>    -0.5791     2.3186   421.4756 </r>
       <r>    -0.4603    12.9637   423.5073 </r>
       <r>    -0.3414     0.0000   424.0000 </r>
       <r>    -0.2226     0.4447   424.0529 </r>
       <r>    -0.1038    14.0052   426.3144 </r>
       <r>     0.0151     9.2559   428.0000 </r>
       <r>     0.1339     0.0000   428.0000 </r>
       <r>     0.2528    24.4174   430.9018 </r>
       <r>     0.3716     5.8448   431.8613 </r>
       <r>     0.4905     9.9472   433.1821 </r>
       <r>     0.6093    22.5315   436.8444 </r>
       <r>     0.7281    25.9462   441.9835 </r>
       <r>     0.8470    20.7468   445.1989 </r>
       <r>     0.9658    26.8449   450.5237 </r>
       <r>     1.0847    18.3057   454.0922 </r>
       <r>     1.2035    33.4898   459.8467 </r>
       <r>     1.3224    39.9504   467.8478 </r>
       <r>     1.4412    36.1703   475.1319 </r>
       <r>     1.5600    22.5374   479.5951 </r>
       <r>     1.6789     0.2805   480.0000 </r>
       <r>     1.7977     0.0000   480.0000 </r>
       <r>     1.9166     0.0000   480.0000 </r>
       <r>     2.0354     0.0000   480.0000 </r>
       <r>     2.1543     0.0000   480.0000 </r>
       <r>     2.2731     0.0000   480.0000 </r>
       <r>     2.3919     0.0000   480.0000 </r>
       <r>     2.5108     0.0000   480.0000 </r>
       <r>     2.6296     0.0000   480.0000 </r>
       <r>     2.7485     0.0000   480.0000 </r>
       <r>     2.8673     0.0000   480.0000 </r>
       <r>     2.9862     0.0000   480.0000 </r>
       <r>     3.1050     0.0000   480.0000 </r>
       <r>     3.2238     0.0000   480.0000 </r>
      </set>
     </set>
    </array>
   </total>
  </dos>
 </calculation>
 <structure name="finalpos" >
  <crystal>
   <varray name="basis" >
    <v>      14.34011794      -0.03033321       0.00000000 </v>
    <v>      -0.05072026      24.81783688       0.00000000 </v>
    <v>       0.00000000       0.00000000      20.00000000 </v>
   </varray>
   <i name="volume">   7117.78338869 </i>
   <varray name="rec_basis" >
    <v>       0.06973473       0.00014252       0.00000000 </v>
    <v>       0.00008523       0.04029377       0.00000000 </v>
    <v>       0.00000000       0.00000000       0.05000000 </v>
   </varray>
  </crystal>
  <varray name="positions" >
   <v>       0.17012639       0.76630962       0.49590665 </v>
   <v>       0.67286418       0.26521138       0.44046167 </v>
   <v>       0.08616744       0.63073667       0.47250818 </v>
   <v>       0.00346127       0.71386233       0.47417525 </v>
   <v>       0.91988761       0.63053490       0.47573583 </v>
   <v>       0.42127411       0.85295561       0.46394800 </v>
   <v>       0.50292616       0.76963510       0.47353562 </v>
   <v>       0.58686159       0.85185178       0.45946014 </v>
   <v>       0.83972528       0.76827923       0.46918213 </v>
   <v>       0.77383501       0.85432319       0.46734781 </v>
   <v>       0.93137197       0.52100207       0.50740048 </v>
   <v>       0.36303475       0.94383912       0.38158228 </v>
   <v>       0.24556464       0.84722792       0.52712518 </v>
   <v>       0.66846578       0.71475007       0.46977838 </v>
   <v>       0.58036301       0.96159436       0.48326538 </v>
   <v>       0.33580019       0.71774536       0.45540781 </v>
   <v>       0.58869938       0.13067362       0.46744601 </v>
   <v>       0.50443771       0.21325645       0.46588430 </v>
   <v>       0.42243209       0.12941798       0.46237006 </v>
   <v>       0.92328344       0.35310193       0.47327320 </v>
   <v>       0.00551093       0.27036352       0.46712850 </v>
   <v>       0.08964793       0.35274581       0.47954455 </v>
   <v>       0.25703469       0.18420994       0.46740735 </v>
   <v>       0.09435698       0.17494751       0.46905628 </v>
   <v>       0.43502254       0.02134227       0.42847696 </v>
   <v>       0.85876238       0.44262412       0.55073113 </v>
   <v>       0.75056103       0.34370458       0.40266617 </v>
   <v>       0.25326880       0.29623526       0.47622636 </v>
   <v>       0.07997063       0.46282357       0.45396774 </v>
   <v>       0.83737985       0.21844023       0.48624651 </v>
   <v>       0.77504581       0.87637531       0.52249428 </v>
   <v>       0.78683570       0.87513911       0.41226656 </v>
   <v>       0.28192174       0.95664846       0.39223299 </v>
   <v>       0.39240235       0.91298678       0.33759310 </v>
   <v>       0.28887289       0.85286321       0.58025325 </v>
   <v>       0.19842709       0.88093235       0.49781052 </v>
   <v>       0.06460618       0.16111776       0.52425353 </v>
   <v>       0.06595689       0.16081762       0.41369021 </v>
   <v>       0.88554235       0.41410838       0.59778460 </v>
   <v>       0.77802962       0.45281732       0.53492593 </v>
   <v>       0.69699333       0.37803725       0.42422803 </v>
   <v>       0.80209295       0.34715480       0.35312066 </v>
   <v>       0.25800163       0.64780933       0.44268723 </v>
   <v>       0.75958010       0.14887459       0.50165651 </v>
   <v>       0.74440097       0.64363931       0.47304294 </v>
   <v>       0.14104573       0.53687344       0.43307547 </v>
   <v>       0.39802844       0.29322638       0.47717048 </v>
   <v>       0.64429941       0.03480623       0.50430339 </v>
   <v>       0.17177845       0.71476435       0.47569817 </v>
   <v>       0.25595618       0.69018519       0.45707749 </v>
   <v>       0.67367036       0.21464479       0.46423769 </v>
   <v>       0.75759472       0.19073834       0.48510477 </v>
   <v>       0.08182604       0.68491620       0.47391530 </v>
   <v>       0.58356183       0.18475306       0.46626134 </v>
   <v>       0.00280147       0.60588511       0.47536343 </v>
   <v>       0.92464795       0.68466208       0.47360580 </v>
   <v>       0.50474223       0.87715844       0.45912651 </v>
   <v>       0.42510565       0.79913322       0.47077642 </v>
   <v>       0.58190850       0.79822807       0.46694268 </v>
   <v>       0.67195266       0.76877365       0.46823706 </v>
   <v>       0.83500534       0.71435672       0.47119398 </v>
   <v>       0.76014688       0.79453515       0.46794490 </v>
   <v>       0.50723991       0.93692319       0.45475652 </v>
   <v>       0.00426326       0.54607545       0.47887033 </v>
   <v>       0.43712028       0.96847552       0.42477365 </v>
   <v>       0.33514723       0.76936624       0.47504509 </v>
   <v>       0.25041080       0.79214590       0.49695237 </v>
   <v>       0.74830477       0.68754390       0.47142286 </v>
   <v>       0.08012673       0.51651486       0.45398435 </v>
   <v>       0.50577091       0.10534671       0.46318372 </v>
   <v>       0.42591690       0.18334672       0.46577689 </v>
   <v>       0.00691900       0.37738186       0.47846706 </v>
   <v>       0.92704368       0.29932506       0.46785034 </v>
   <v>       0.08461666       0.29890243       0.47351521 </v>
   <v>       0.17334152       0.26799843       0.47336724 </v>
   <v>       0.33617992       0.21309591       0.46926850 </v>
   <v>       0.17807493       0.21113146       0.46978005 </v>
   <v>       0.00728869       0.43726978       0.48188075 </v>
   <v>       0.50760143       0.04559672       0.45840547 </v>
   <v>       0.93495723       0.46806558       0.51035482 </v>
   <v>       0.83742649       0.26914171       0.46330467 </v>
   <v>       0.75346346       0.29076532       0.43832427 </v>
   <v>       0.33371297       0.26967488       0.47456717 </v>
   <v>       0.58259804       0.01528882       0.48331746 </v>
  </varray>
 </structure>
</modeling>
