<?xml version="1.0" encoding="ISO-8859-1"?>
<modeling>
 <generator>
  <i name="program" type="string">vasp </i>
  <i name="version" type="string">5.4.4.18Apr17-6-g9f103f2a35  </i>
  <i name="subversion" type="string">(build Jun 07 2020 16:50:00) complex            parallel </i>
  <i name="platform" type="string">LinuxIFC </i>
  <i name="date" type="string">2023 02 16 </i>
  <i name="time" type="string">11:55:26 </i>
 </generator>
 <incar>
  <i type="string" name="SYSTEM">Simulation for cell shape cell volume r</i>
  <i type="int" name="ISTART">     1</i>
  <i type="string" name="PREC">high</i>
  <i type="string" name="ALGO">48</i>
  <i type="int" name="ICHARG">    11</i>
  <i type="int" name="NELM">   200</i>
  <i type="int" name="IBRION">    -1</i>
  <i name="EDIFF">      0.00001000</i>
  <i name="EDIFFG">     -0.01000000</i>
  <i type="int" name="NSW">     0</i>
  <i type="int" name="ISIF">     2</i>
  <i name="ENCUT">    500.00000000</i>
  <i name="POTIM">      0.30000000</i>
  <i type="string" name="LREAL">A</i>
  <i type="int" name="ISMEAR">     0</i>
  <i name="SIGMA">      0.01000000</i>
  <i type="int" name="NWRITE">     0</i>
  <i type="logical" name="LWAVE"> F  </i>
  <i type="logical" name="LCHARG"> F  </i>
  <v type="int" name="KPOINT_BSE">    -1     0     0     0</v>
  <i type="int" name="NELM">   200</i>
  <i type="string" name="GGA">PE</i>
 </incar>
 <structure name="primitive_cell" >
  <crystal>
   <varray name="basis" >
    <v>      33.94605484      -0.00191934       0.00000000 </v>
    <v>     -16.97477648      29.44610463       0.00000000 </v>
    <v>       0.00000000       0.00000000      20.00000000 </v>
   </varray>
   <i name="volume">  19990.93004641 </i>
   <varray name="rec_basis" >
    <v>       0.02945946       0.01698248       0.00000000 </v>
    <v>       0.00000192       0.03396146       0.00000000 </v>
    <v>       0.00000000       0.00000000       0.05000000 </v>
   </varray>
  </crystal>
  <varray name="positions" >
   <v>      -0.08379628       0.19365892       0.35797774 </v>
   <v>      -0.12090219       0.16150309       0.37510236 </v>
   <v>      -0.15777710       0.14786110       0.34671601 </v>
   <v>      -0.12049055       0.13432067       0.43301397 </v>
   <v>      -0.07085165       0.12363586       0.38262357 </v>
   <v>      -0.09292019       0.11513691       0.42625412 </v>
   <v>      -0.15931140       0.18988576       0.47443039 </v>
   <v>      -0.14834401       0.12678076       0.48913011 </v>
   <v>      -0.17538536       0.14937970       0.49707454 </v>
   <v>      -0.09432643       0.08467813       0.47469039 </v>
   <v>      -0.18712584       0.20946505       0.47828267 </v>
   <v>      -0.14831887       0.09623422      -0.46307231 </v>
   <v>      -0.16493620       0.25501287       0.47420635 </v>
   <v>      -0.20873601       0.13075291      -0.47843710 </v>
   <v>      -0.12316320       0.07457021      -0.46988917 </v>
   <v>      -0.04010482       0.07765630       0.42638125 </v>
   <v>      -0.06519103       0.06452526       0.46740410 </v>
   <v>      -0.23244308       0.18194893       0.48382989 </v>
   <v>      -0.17433097       0.08796568      -0.39995090 </v>
   <v>      -0.19246012       0.27267108       0.47649595 </v>
   <v>      -0.12478664       0.05092387      -0.43174594 </v>
   <v>      -0.17769082       0.12007370      -0.37700151 </v>
   <v>      -0.06876261       0.03330592      -0.49299708 </v>
   <v>      -0.25603057       0.20379149       0.48524878 </v>
   <v>      -0.17370561       0.31934967       0.46855094 </v>
   <v>      -0.23811925       0.24913290       0.48148805 </v>
   <v>      -0.19010474       0.04993809      -0.37438574 </v>
   <v>      -0.03777342       0.01797381      -0.49707088 </v>
   <v>       0.00667355       0.04930385      -0.49648737 </v>
   <v>      -0.30293908       0.17863677       0.49557051 </v>
   <v>      -0.18168829       0.34159824      -0.48709438 </v>
   <v>      -0.31388125       0.20972283       0.41362090 </v>
   <v>      -0.15617961       0.38992536       0.39583926 </v>
   <v>      -0.19764294       0.32619191      -0.43878427 </v>
   <v>      -0.32781492       0.18753927       0.45764733 </v>
   <v>      -0.05551341      -0.02736490      -0.49754623 </v>
   <v>       0.03431546       0.03155170      -0.49688399 </v>
   <v>      -0.36790701       0.14405775       0.34948955 </v>
   <v>      -0.17437949       0.38731728      -0.49958491 </v>
   <v>      -0.16436046       0.40629467       0.43602758 </v>
   <v>       0.08059099       0.06256950      -0.49297259 </v>
   <v>      -0.02408789      -0.04040798      -0.49743172 </v>
   <v>       0.02132260      -0.01284495      -0.49702946 </v>
   <v>      -0.15188997       0.44099282       0.31045567 </v>
   <v>      -0.37534238       0.17369538       0.47423842 </v>
   <v>       0.10824526       0.05947464       0.46678083 </v>
   <v>      -0.32198439       0.23465677      -0.40756826 </v>
   <v>       0.09633532       0.03473253       0.42534170 </v>
   <v>      -0.40141226       0.14918124       0.35699336 </v>
   <v>      -0.08318773      -0.10215974       0.42501325 </v>
   <v>      -0.18335715       0.40990312      -0.44844262 </v>
   <v>      -0.16669322       0.44514983       0.42339314 </v>
   <v>      -0.35415435       0.19528145      -0.40523861 </v>
   <v>      -0.19052478       0.39626273      -0.39770801 </v>
   <v>       0.15390620       0.11853640      -0.43198703 </v>
   <v>      -0.15566340       0.46426993       0.35466295 </v>
   <v>      -0.40974976       0.16041975       0.42541211 </v>
   <v>      -0.36305609       0.16762028      -0.35969505 </v>
   <v>       0.15750006       0.08877743       0.47396897 </v>
   <v>      -0.38732725       0.18023516      -0.46126342 </v>
   <v>      -0.03943408      -0.08666727      -0.49355361 </v>
   <v>      -0.07037693      -0.11418087       0.46637045 </v>
   <v>       0.17605506       0.11728972      -0.47031293 </v>
   <v>      -0.42824335       0.14541695       0.31241363 </v>
   <v>      -0.18595298       0.44852592      -0.46322386 </v>
   <v>       0.18668228       0.08786158       0.42526638 </v>
   <v>      -0.17954570       0.46672448       0.47207170 </v>
   <v>       0.17324659       0.06606394       0.38137107 </v>
   <v>       0.21764061       0.18346798      -0.37401305 </v>
   <v>      -0.15076044      -0.49728048       0.34653128 </v>
   <v>       0.22285286       0.14259597      -0.46341516 </v>
   <v>      -0.12862704      -0.17889006       0.38067693 </v>
   <v>      -0.45111780       0.15785649       0.43760852 </v>
   <v>      -0.42876860       0.17737340      -0.44687154 </v>
   <v>      -0.09061550      -0.16340370       0.47368787 </v>
   <v>       0.23340467       0.11556308       0.43214436 </v>
   <v>       0.24028646       0.16820664      -0.39994104 </v>
   <v>      -0.12057339      -0.19243565       0.42477135 </v>
   <v>      -0.47563414       0.14941056       0.39727375 </v>
   <v>       0.25359468       0.14309866       0.48856949 </v>
   <v>      -0.20068838       0.46704778      -0.40734692 </v>
   <v>      -0.46028487       0.16804449      -0.49824499 </v>
   <v>      -0.43544994       0.18463707      -0.39630613 </v>
   <v>      -0.19322062      -0.49949393       0.45543941 </v>
   <v>      -0.17282444       0.48599744      -0.36205916 </v>
   <v>      -0.21565531       0.49220265       0.41167103 </v>
   <v>      -0.05786448      -0.16000684      -0.43172751 </v>
   <v>       0.26105086       0.11639833       0.37399813 </v>
   <v>       0.28420408       0.15341300       0.34609546 </v>
   <v>      -0.08109208      -0.18205751      -0.47024714 </v>
   <v>      -0.24008391       0.45992787      -0.40956144 </v>
   <v>       0.27592544       0.17181596      -0.37711096 </v>
   <v>       0.30324341       0.17013680       0.49666043 </v>
   <v>       0.31782885       0.20315874      -0.47801794 </v>
   <v>      -0.18398798      -0.46560239       0.49323290 </v>
   <v>       0.25620020       0.07945756       0.35625241 </v>
   <v>      -0.13978832      -0.23912731       0.43166677 </v>
   <v>      -0.19836730      -0.26177063       0.35511337 </v>
   <v>      -0.49878042       0.17539834      -0.48651513 </v>
   <v>      -0.16633399      -0.26667390       0.37330141 </v>
   <v>      -0.10282372      -0.22880806      -0.46333109 </v>
   <v>      -0.49837167       0.19166775      -0.43857218 </v>
   <v>       0.47116569       0.16726915       0.46871247 </v>
   <v>       0.32776076       0.15430251       0.47334711 </v>
   <v>      -0.13279771      -0.25936834       0.48834771 </v>
   <v>      -0.20922199      -0.44387966       0.48327757 </v>
   <v>      -0.25462766      -0.47131249       0.47972762 </v>
   <v>      -0.15228523      -0.28977413       0.34562877 </v>
   <v>      -0.09532712      -0.24645743      -0.39954829 </v>
   <v>      -0.05743828      -0.22438220      -0.37337351 </v>
   <v>       0.39328091       0.22709267       0.48302213 </v>
   <v>       0.37517131       0.18179223       0.47745314 </v>
   <v>      -0.46398877       0.31612526      -0.40988528 </v>
   <v>       0.44348463       0.18643464       0.47586495 </v>
   <v>      -0.18737420      -0.39848192       0.48199872 </v>
   <v>       0.46591491       0.23209535       0.48022970 </v>
   <v>      -0.15535878      -0.30892003       0.49646766 </v>
   <v>      -0.12789888      -0.28160779      -0.37669792 </v>
   <v>      -0.49771487       0.30765244       0.41130000 </v>
   <v>      -0.19543933      -0.33350534       0.47234104 </v>
   <v>      -0.33168615       0.49266630      -0.43933540 </v>
   <v>      -0.27824824      -0.44924865       0.47511463 </v>
   <v>      -0.34716811       0.49284531      -0.48777139 </v>
   <v>      -0.32501105      -0.47721059       0.46751279 </v>
   <v>      -0.39279864       0.45418386       0.49990379 </v>
   <v>      -0.41522466       0.42272852      -0.44879423 </v>
   <v>       0.49440978       0.32179461       0.45545823 </v>
   <v>       0.43872759       0.25033805       0.48395168 </v>
   <v>      -0.45354100       0.38124572      -0.46348931 </v>
   <v>      -0.40165808       0.42949209      -0.39800509 </v>
   <v>      -0.13707909      -0.32344872      -0.47749188 </v>
   <v>      -0.47166932       0.34800291      -0.40760099 </v>
   <v>      -0.47173857       0.36921090       0.47183974 </v>
   <v>       0.39828459       0.15928957       0.47352748 </v>
   <v>      -0.41156828       0.44478081       0.43536913 </v>
   <v>      -0.45021083       0.40341225       0.42290679 </v>
   <v>       0.46078107       0.29725138       0.49377557 </v>
   <v>      -0.39514993       0.46911827       0.39497456 </v>
   <v>      -0.21498810      -0.38078134       0.47653223 </v>
   <v>       0.49177610       0.36223912       0.34649239 </v>
   <v>      -0.44487645       0.42039581       0.30911190 </v>
   <v>      -0.46906604       0.39477685       0.35402327 </v>
   <v>      -0.26059846      -0.40414507       0.47276637 </v>
   <v>      -0.49085556       0.35655271      -0.36223469 </v>
  </varray>
 </structure>
 <varray name="primitive_index" >
  <v type="int" >        1 </v>
  <v type="int" >       89 </v>
  <v type="int" >        2 </v>
  <v type="int" >       29 </v>
  <v type="int" >      121 </v>
  <v type="int" >       28 </v>
  <v type="int" >       86 </v>
  <v type="int" >       57 </v>
  <v type="int" >       60 </v>
  <v type="int" >       27 </v>
  <v type="int" >       25 </v>
  <v type="int" >       58 </v>
  <v type="int" >       85 </v>
  <v type="int" >      137 </v>
  <v type="int" >       59 </v>
  <v type="int" >      122 </v>
  <v type="int" >       30 </v>
  <v type="int" >      113 </v>
  <v type="int" >      106 </v>
  <v type="int" >       26 </v>
  <v type="int" >      133 </v>
  <v type="int" >       13 </v>
  <v type="int" >      103 </v>
  <v type="int" >       71 </v>
  <v type="int" >       87 </v>
  <v type="int" >      112 </v>
  <v type="int" >       14 </v>
  <v type="int" >       55 </v>
  <v type="int" >      109 </v>
  <v type="int" >      114 </v>
  <v type="int" >       68 </v>
  <v type="int" >      132 </v>
  <v type="int" >      125 </v>
  <v type="int" >      138 </v>
  <v type="int" >       54 </v>
  <v type="int" >      101 </v>
  <v type="int" >       70 </v>
  <v type="int" >       12 </v>
  <v type="int" >       65 </v>
  <v type="int" >       37 </v>
  <v type="int" >      111 </v>
  <v type="int" >       56 </v>
  <v type="int" >      110 </v>
  <v type="int" >        5 </v>
  <v type="int" >       51 </v>
  <v type="int" >       46 </v>
  <v type="int" >       23 </v>
  <v type="int" >      128 </v>
  <v type="int" >      100 </v>
  <v type="int" >      124 </v>
  <v type="int" >       66 </v>
  <v type="int" >       36 </v>
  <v type="int" >      120 </v>
  <v type="int" >      136 </v>
  <v type="int" >      139 </v>
  <v type="int" >       91 </v>
  <v type="int" >       52 </v>
  <v type="int" >       24 </v>
  <v type="int" >       43 </v>
  <v type="int" >       83 </v>
  <v type="int" >      102 </v>
  <v type="int" >       34 </v>
  <v type="int" >       75 </v>
  <v type="int" >       11 </v>
  <v type="int" >       67 </v>
  <v type="int" >       44 </v>
  <v type="int" >       35 </v>
  <v type="int" >      127 </v>
  <v type="int" >       20 </v>
  <v type="int" >        6 </v>
  <v type="int" >       74 </v>
  <v type="int" >      123 </v>
  <v type="int" >       53 </v>
  <v type="int" >       82 </v>
  <v type="int" >       31 </v>
  <v type="int" >       45 </v>
  <v type="int" >      118 </v>
  <v type="int" >       32 </v>
  <v type="int" >      131 </v>
  <v type="int" >       73 </v>
  <v type="int" >      108 </v>
  <v type="int" >       81 </v>
  <v type="int" >      143 </v>
  <v type="int" >       38 </v>
  <v type="int" >       17 </v>
  <v type="int" >      126 </v>
  <v type="int" >      134 </v>
  <v type="int" >       98 </v>
  <v type="int" >        8 </v>
  <v type="int" >       63 </v>
  <v type="int" >       18 </v>
  <v type="int" >       19 </v>
  <v type="int" >       76 </v>
  <v type="int" >      140 </v>
  <v type="int" >      105 </v>
  <v type="int" >        7 </v>
  <v type="int" >       33 </v>
  <v type="int" >        3 </v>
  <v type="int" >       84 </v>
  <v type="int" >       90 </v>
  <v type="int" >       62 </v>
  <v type="int" >      144 </v>
  <v type="int" >       97 </v>
  <v type="int" >       96 </v>
  <v type="int" >       61 </v>
  <v type="int" >       69 </v>
  <v type="int" >       93 </v>
  <v type="int" >        4 </v>
  <v type="int" >      107 </v>
  <v type="int" >       16 </v>
  <v type="int" >      116 </v>
  <v type="int" >       41 </v>
  <v type="int" >       21 </v>
  <v type="int" >       42 </v>
  <v type="int" >      104 </v>
  <v type="int" >      115 </v>
  <v type="int" >       64 </v>
  <v type="int" >       15 </v>
  <v type="int" >      130 </v>
  <v type="int" >       88 </v>
  <v type="int" >      142 </v>
  <v type="int" >       40 </v>
  <v type="int" >       80 </v>
  <v type="int" >       94 </v>
  <v type="int" >       77 </v>
  <v type="int" >       78 </v>
  <v type="int" >       50 </v>
  <v type="int" >       72 </v>
  <v type="int" >       79 </v>
  <v type="int" >      141 </v>
  <v type="int" >      135 </v>
  <v type="int" >      119 </v>
  <v type="int" >       47 </v>
  <v type="int" >       95 </v>
  <v type="int" >       49 </v>
  <v type="int" >       48 </v>
  <v type="int" >      117 </v>
  <v type="int" >      129 </v>
  <v type="int" >       39 </v>
  <v type="int" >       10 </v>
  <v type="int" >        9 </v>
  <v type="int" >       99 </v>
  <v type="int" >       92 </v>
  <v type="int" >       22 </v>
 </varray>
 <kpoints>
  <generation param="listgenerated">
   <i name="divisions" type="int">      20 </i>
   <v>       0.00000000       0.00000000       0.00000000 </v>
   <v>       0.50000000       0.00000000       0.00000000 </v>
   <v>       0.33333333       0.33333333       0.00000000 </v>
   <v>       0.00000000       0.00000000       0.00000000 </v>
  </generation>
  <varray name="kpointlist" >
   <v>       0.00000000       0.00000000       0.00000000 </v>
   <v>       0.02631579       0.00000000       0.00000000 </v>
   <v>       0.05263158       0.00000000       0.00000000 </v>
   <v>       0.07894737       0.00000000       0.00000000 </v>
   <v>       0.10526316       0.00000000       0.00000000 </v>
   <v>       0.13157895       0.00000000       0.00000000 </v>
   <v>       0.15789474       0.00000000       0.00000000 </v>
   <v>       0.18421053       0.00000000       0.00000000 </v>
   <v>       0.21052632       0.00000000       0.00000000 </v>
   <v>       0.23684211       0.00000000       0.00000000 </v>
   <v>       0.26315789       0.00000000       0.00000000 </v>
   <v>       0.28947368       0.00000000       0.00000000 </v>
   <v>       0.31578947       0.00000000       0.00000000 </v>
   <v>       0.34210526       0.00000000       0.00000000 </v>
   <v>       0.36842105       0.00000000       0.00000000 </v>
   <v>       0.39473684       0.00000000       0.00000000 </v>
   <v>       0.42105263       0.00000000       0.00000000 </v>
   <v>       0.44736842       0.00000000       0.00000000 </v>
   <v>       0.47368421       0.00000000       0.00000000 </v>
   <v>       0.50000000       0.00000000       0.00000000 </v>
   <v>       0.50000000       0.00000000       0.00000000 </v>
   <v>       0.49122807       0.01754386       0.00000000 </v>
   <v>       0.48245614       0.03508772       0.00000000 </v>
   <v>       0.47368421       0.05263158       0.00000000 </v>
   <v>       0.46491228       0.07017544       0.00000000 </v>
   <v>       0.45614035       0.08771930       0.00000000 </v>
   <v>       0.44736842       0.10526316       0.00000000 </v>
   <v>       0.43859649       0.12280702       0.00000000 </v>
   <v>       0.42982456       0.14035088       0.00000000 </v>
   <v>       0.42105263       0.15789474       0.00000000 </v>
   <v>       0.41228070       0.17543860       0.00000000 </v>
   <v>       0.40350877       0.19298246       0.00000000 </v>
   <v>       0.39473684       0.21052632       0.00000000 </v>
   <v>       0.38596491       0.22807018       0.00000000 </v>
   <v>       0.37719298       0.24561404       0.00000000 </v>
   <v>       0.36842105       0.26315789       0.00000000 </v>
   <v>       0.35964912       0.28070175       0.00000000 </v>
   <v>       0.35087719       0.29824561       0.00000000 </v>
   <v>       0.34210526       0.31578947       0.00000000 </v>
   <v>       0.33333333       0.33333333       0.00000000 </v>
   <v>       0.33333333       0.33333333       0.00000000 </v>
   <v>       0.31578947       0.31578947       0.00000000 </v>
   <v>       0.29824561       0.29824561       0.00000000 </v>
   <v>       0.28070175       0.28070175       0.00000000 </v>
   <v>       0.26315789       0.26315789       0.00000000 </v>
   <v>       0.24561404       0.24561404       0.00000000 </v>
   <v>       0.22807018       0.22807018       0.00000000 </v>
   <v>       0.21052632       0.21052632       0.00000000 </v>
   <v>       0.19298246       0.19298246       0.00000000 </v>
   <v>       0.17543860       0.17543860       0.00000000 </v>
   <v>       0.15789474       0.15789474       0.00000000 </v>
   <v>       0.14035088       0.14035088       0.00000000 </v>
   <v>       0.12280702       0.12280702       0.00000000 </v>
   <v>       0.10526316       0.10526316       0.00000000 </v>
   <v>       0.08771930       0.08771930       0.00000000 </v>
   <v>       0.07017544       0.07017544       0.00000000 </v>
   <v>       0.05263158       0.05263158       0.00000000 </v>
   <v>       0.03508772       0.03508772       0.00000000 </v>
   <v>       0.01754386       0.01754386       0.00000000 </v>
   <v>       0.00000000       0.00000000       0.00000000 </v>
  </varray>
  <varray name="weights" >
   <v>       0.01666667 </v>
   <v>       0.01666667 </v>
   <v>       0.01666667 </v>
   <v>       0.01666667 </v>
   <v>       0.01666667 </v>
   <v>       0.01666667 </v>
   <v>       0.01666667 </v>
   <v>       0.01666667 </v>
   <v>       0.01666667 </v>
   <v>       0.01666667 </v>
   <v>       0.01666667 </v>
   <v>       0.01666667 </v>
   <v>       0.01666667 </v>
   <v>       0.01666667 </v>
   <v>       0.01666667 </v>
   <v>       0.01666667 </v>
   <v>       0.01666667 </v>
   <v>       0.01666667 </v>
   <v>       0.01666667 </v>
   <v>       0.01666667 </v>
   <v>       0.01666667 </v>
   <v>       0.01666667 </v>
   <v>       0.01666667 </v>
   <v>       0.01666667 </v>
   <v>       0.01666667 </v>
   <v>       0.01666667 </v>
   <v>       0.01666667 </v>
   <v>       0.01666667 </v>
   <v>       0.01666667 </v>
   <v>       0.01666667 </v>
   <v>       0.01666667 </v>
   <v>       0.01666667 </v>
   <v>       0.01666667 </v>
   <v>       0.01666667 </v>
   <v>       0.01666667 </v>
   <v>       0.01666667 </v>
   <v>       0.01666667 </v>
   <v>       0.01666667 </v>
   <v>       0.01666667 </v>
   <v>       0.01666667 </v>
   <v>       0.01666667 </v>
   <v>       0.01666667 </v>
   <v>       0.01666667 </v>
   <v>       0.01666667 </v>
   <v>       0.01666667 </v>
   <v>       0.01666667 </v>
   <v>       0.01666667 </v>
   <v>       0.01666667 </v>
   <v>       0.01666667 </v>
   <v>       0.01666667 </v>
   <v>       0.01666667 </v>
   <v>       0.01666667 </v>
   <v>       0.01666667 </v>
   <v>       0.01666667 </v>
   <v>       0.01666667 </v>
   <v>       0.01666667 </v>
   <v>       0.01666667 </v>
   <v>       0.01666667 </v>
   <v>       0.01666667 </v>
   <v>       0.01666667 </v>
  </varray>
 </kpoints>
 <parameters>
  <separator name="general" >
   <i type="string" name="SYSTEM">Simulation for cell shape cell volume r</i>
   <i type="logical" name="LCOMPAT"> F  </i>
  </separator>
  <separator name="electronic" >
   <i type="string" name="PREC">high</i>
   <i name="ENMAX">    500.00000000</i>
   <i name="ENAUG">    644.87300000</i>
   <i name="EDIFF">      0.00001000</i>
   <i type="int" name="IALGO">    38</i>
   <i type="int" name="IWAVPR">    10</i>
   <i type="int" name="NBANDS">   368</i>
   <i name="NELECT">    588.00000000</i>
   <i type="int" name="TURBO">     0</i>
   <i type="int" name="IRESTART">     0</i>
   <i type="int" name="NREBOOT">     0</i>
   <i type="int" name="NMIN">     0</i>
   <i name="EREF">      0.00000000</i>
   <separator name="electronic smearing" >
    <i type="int" name="ISMEAR">     0</i>
    <i name="SIGMA">      0.01000000</i>
    <i name="KSPACING">      0.50000000</i>
    <i type="logical" name="KGAMMA"> T  </i>
   </separator>
   <separator name="electronic projectors" >
    <i type="logical" name="LREAL"> T  </i>
    <v name="ROPT">     -0.00040000     -0.00040000     -0.00040000     -0.00040000</v>
    <i type="int" name="LMAXPAW">  -100</i>
    <i type="int" name="LMAXMIX">     2</i>
    <i type="logical" name="NLSPLINE"> F  </i>
   </separator>
   <separator name="electronic startup" >
    <i type="int" name="ISTART">     1</i>
    <i type="int" name="ICHARG">    11</i>
    <i type="int" name="INIWAV">     1</i>
   </separator>
   <separator name="electronic spin" >
    <i type="int" name="ISPIN">     1</i>
    <i type="logical" name="LNONCOLLINEAR"> F  </i>
    <v name="MAGMOM">      1.00000000      1.00000000      1.00000000      1.00000000      1.00000000      1.00000000      1.00000000      1.00000000      1.00000000      1.00000000      1.00000000      1.00000000      1.00000000      1.00000000      1.00000000      1.00000000      1.00000000      1.00000000      1.00000000      1.00000000
      1.00000000      1.00000000      1.00000000      1.00000000      1.00000000      1.00000000      1.00000000      1.00000000      1.00000000      1.00000000      1.00000000      1.00000000      1.00000000      1.00000000      1.00000000      1.00000000      1.00000000      1.00000000      1.00000000      1.00000000
      1.00000000      1.00000000      1.00000000      1.00000000      1.00000000      1.00000000      1.00000000      1.00000000      1.00000000      1.00000000      1.00000000      1.00000000      1.00000000      1.00000000      1.00000000      1.00000000      1.00000000      1.00000000      1.00000000      1.00000000
      1.00000000      1.00000000      1.00000000      1.00000000      1.00000000      1.00000000      1.00000000      1.00000000      1.00000000      1.00000000      1.00000000      1.00000000      1.00000000      1.00000000      1.00000000      1.00000000      1.00000000      1.00000000      1.00000000      1.00000000
      1.00000000      1.00000000      1.00000000      1.00000000      1.00000000      1.00000000      1.00000000      1.00000000      1.00000000      1.00000000      1.00000000      1.00000000      1.00000000      1.00000000      1.00000000      1.00000000      1.00000000      1.00000000      1.00000000      1.00000000
      1.00000000      1.00000000      1.00000000      1.00000000      1.00000000      1.00000000      1.00000000      1.00000000      1.00000000      1.00000000      1.00000000      1.00000000      1.00000000      1.00000000      1.00000000      1.00000000      1.00000000      1.00000000      1.00000000      1.00000000
      1.00000000      1.00000000      1.00000000      1.00000000      1.00000000      1.00000000      1.00000000      1.00000000      1.00000000      1.00000000      1.00000000      1.00000000      1.00000000      1.00000000      1.00000000      1.00000000      1.00000000      1.00000000      1.00000000      1.00000000
      1.00000000      1.00000000      1.00000000      1.00000000</v>
    <i name="NUPDOWN">     -1.00000000</i>
    <i type="logical" name="LSORBIT"> F  </i>
    <v name="SAXIS">      0.00000000      0.00000000      1.00000000</v>
    <i type="logical" name="LSPIRAL"> F  </i>
    <v name="QSPIRAL">      0.00000000      0.00000000      0.00000000</v>
    <i type="logical" name="LZEROZ"> F  </i>
   </separator>
   <separator name="electronic exchange-correlation" >
    <i type="logical" name="LASPH"> F  </i>
    <i type="logical" name="LMETAGGA"> F  </i>
   </separator>
   <separator name="electronic convergence" >
    <i type="int" name="NELM">   200</i>
    <i type="int" name="NELMDL">     0</i>
    <i type="int" name="NELMIN">     2</i>
    <i name="ENINI">    500.00000000</i>
    <separator name="electronic convergence detail" >
     <i type="logical" name="LDIAG"> T  </i>
     <i type="logical" name="LSUBROT"> F  </i>
     <i name="WEIMIN">      0.00000000</i>
     <i name="EBREAK">      0.00000001</i>
     <i name="DEPER">      0.30000000</i>
     <i type="int" name="NRMM">     4</i>
     <i name="TIME">      0.40000000</i>
    </separator>
   </separator>
   <separator name="electronic mixer" >
    <i name="AMIX">      0.40000000</i>
    <i name="BMIX">      1.00000000</i>
    <i name="AMIN">      0.10000000</i>
    <i name="AMIX_MAG">      1.60000000</i>
    <i name="BMIX_MAG">      1.00000000</i>
    <separator name="electronic mixer details" >
     <i type="int" name="IMIX">     4</i>
     <i type="logical" name="MIXFIRST"> F  </i>
     <i type="int" name="MAXMIX">   -45</i>
     <i name="WC">    100.00000000</i>
     <i type="int" name="INIMIX">     1</i>
     <i type="int" name="MIXPRE">     1</i>
     <i type="int" name="MREMOVE">     5</i>
    </separator>
   </separator>
   <separator name="electronic dipolcorrection" >
    <i type="logical" name="LDIPOL"> F  </i>
    <i type="logical" name="LMONO"> F  </i>
    <i type="int" name="IDIPOL">     0</i>
    <i name="EPSILON">      1.00000000</i>
    <v name="DIPOL">   -100.00000000   -100.00000000   -100.00000000</v>
    <i name="EFIELD">      0.00000000</i>
   </separator>
  </separator>
  <separator name="grids" >
   <i type="int" name="NGX">   250</i>
   <i type="int" name="NGY">   250</i>
   <i type="int" name="NGZ">   150</i>
   <i type="int" name="NGXF">   378</i>
   <i type="int" name="NGYF">   378</i>
   <i type="int" name="NGZF">   224</i>
   <i type="logical" name="ADDGRID"> F  </i>
  </separator>
  <separator name="ionic" >
   <i type="int" name="NSW">     0</i>
   <i type="int" name="IBRION">    -1</i>
   <i type="int" name="MDALGO">     0</i>
   <i type="int" name="ISIF">     2</i>
   <i name="PSTRESS">      0.00000000</i>
   <i name="EDIFFG">     -0.01000000</i>
   <i type="int" name="NFREE">     0</i>
   <i name="POTIM">      0.30000000</i>
   <i name="SMASS">     -3.00000000</i>
   <i name="SCALEE">      1.00000000</i>
  </separator>
  <separator name="ionic md" >
   <i name="TEBEG">      0.00010000</i>
   <i name="TEEND">      0.00010000</i>
   <i type="int" name="NBLOCK">     1</i>
   <i type="int" name="KBLOCK">     1</i>
   <i type="int" name="NPACO">   256</i>
   <i name="APACO">     16.00000000</i>
  </separator>
  <separator name="symmetry" >
   <i type="int" name="ISYM">     2</i>
   <i name="SYMPREC">      0.00001000</i>
  </separator>
  <separator name="dos" >
   <i type="int" name="LORBIT">     0</i>
   <v name="RWIGS">     -1.00000000     -1.00000000     -1.00000000     -1.00000000</v>
   <i type="int" name="NEDOS">   301</i>
   <i name="EMIN">     10.00000000</i>
   <i name="EMAX">    -10.00000000</i>
   <i name="EFERMI">      0.00000000</i>
  </separator>
  <separator name="writing" >
   <i type="int" name="NWRITE">     0</i>
   <i type="logical" name="LWAVE"> F  </i>
   <i type="logical" name="LDOWNSAMPLE"> F  </i>
   <i type="logical" name="LCHARG"> F  </i>
   <i type="logical" name="LPARD"> F  </i>
   <i type="logical" name="LVTOT"> F  </i>
   <i type="logical" name="LVHAR"> F  </i>
   <i type="logical" name="LELF"> F  </i>
   <i type="logical" name="LOPTICS"> F  </i>
   <v name="STM">      0.00000000      0.00000000      0.00000000      0.00000000      0.00000000      0.00000000      0.00000000</v>
  </separator>
  <separator name="performance" >
   <i type="int" name="NPAR">    16</i>
   <i type="int" name="NSIM">     4</i>
   <i type="int" name="NBLK">    -1</i>
   <i type="logical" name="LPLANE"> T  </i>
   <i type="logical" name="LSCALAPACK"> T  </i>
   <i type="logical" name="LSCAAWARE"> F  </i>
   <i type="logical" name="LSCALU"> F  </i>
   <i type="logical" name="LASYNC"> F  </i>
   <i type="logical" name="LORBITALREAL"> F  </i>
  </separator>
  <separator name="miscellaneous" >
   <i type="int" name="IDIOT">     3</i>
   <i type="int" name="ISPECIAL">     0</i>
   <i type="logical" name="LMUSIC"> F  </i>
   <v name="POMASS">     16.00000000     12.01100000     14.00100000      1.00000000</v>
   <v name="DARWINR">      0.00000000      0.00000000      0.00000000      0.00000000</v>
   <v name="DARWINV">      1.00000000      1.00000000      1.00000000      1.00000000</v>
   <i type="logical" name="LCORR"> T  </i>
  </separator>
  <i type="logical" name="GGA_COMPAT"> T  </i>
  <i type="logical" name="LBERRY"> F  </i>
  <i type="int" name="ICORELEVEL">     0</i>
  <i type="logical" name="LDAU"> F  </i>
  <i type="int" name="I_CONSTRAINED_M">     0</i>
  <separator name="electronic exchange-correlation" >
   <i type="string" name="GGA">PE</i>
   <i type="int" name="VOSKOWN">     0</i>
   <i type="logical" name="LHFCALC"> F  </i>
   <i type="string" name="PRECFOCK"></i>
   <i type="logical" name="LSYMGRAD"> F  </i>
   <i type="logical" name="LHFONE"> F  </i>
   <i type="logical" name="LRHFCALC"> F  </i>
   <i type="logical" name="LTHOMAS"> F  </i>
   <i type="logical" name="LMODELHF"> F  </i>
   <i name="ENCUT4O">     -1.00000000</i>
   <i type="int" name="EXXOEP">     0</i>
   <i type="int" name="FOURORBIT">     0</i>
   <i name="AEXX">      0.00000000</i>
   <i name="HFALPHA">      0.00000000</i>
   <i name="MCALPHA">      0.00000000</i>
   <i name="ALDAX">      1.00000000</i>
   <i name="AGGAX">      1.00000000</i>
   <i name="ALDAC">      1.00000000</i>
   <i name="AGGAC">      1.00000000</i>
   <i type="int" name="NKREDX">     1</i>
   <i type="int" name="NKREDY">     1</i>
   <i type="int" name="NKREDZ">     1</i>
   <i type="logical" name="SHIFTRED"> F  </i>
   <i type="logical" name="ODDONLY"> F  </i>
   <i type="logical" name="EVENONLY"> F  </i>
   <i type="int" name="LMAXFOCK">     0</i>
   <i type="int" name="NMAXFOCKAE">     0</i>
   <i type="logical" name="LFOCKAEDFT"> F  </i>
   <i name="HFSCREEN">      0.00000000</i>
   <i name="HFSCREENC">      0.00000000</i>
   <i type="int" name="NBANDSGWLOW">     0</i>
  </separator>
  <separator name="vdW DFT" >
   <i type="logical" name="LUSE_VDW"> F  </i>
   <i name="Zab_VDW">     -0.84910000</i>
   <i name="PARAM1">      0.12340000</i>
   <i name="PARAM2">      1.00000000</i>
   <i name="PARAM3">      0.00000000</i>
  </separator>
  <separator name="model GW" >
   <i type="int" name="MODEL_GW">     0</i>
   <i name="MODEL_EPS0">     83.29554186</i>
   <i name="MODEL_ALPHA">      1.00000000</i>
  </separator>
  <separator name="linear response parameters" >
   <i type="logical" name="LEPSILON"> F  </i>
   <i type="logical" name="LRPA"> F  </i>
   <i type="logical" name="LNABLA"> F  </i>
   <i type="logical" name="LVEL"> F  </i>
   <i type="int" name="KINTER">     0</i>
   <i name="CSHIFT">      0.10000000</i>
   <i name="OMEGAMAX">     -1.00000000</i>
   <i name="DEG_THRESHOLD">      0.00200000</i>
   <i name="RTIME">     -0.10000000</i>
   <i name="WPLASMAI">      0.00000000</i>
   <v name="DFIELD">      0.00000000      0.00000000      0.00000000</v>
   <v name="WPLASMA">      0.00000000      0.00000000      0.00000000      0.00000000      0.00000000      0.00000000      0.00000000      0.00000000      0.00000000</v>
  </separator>
  <separator name="orbital magnetization" >
   <i type="logical" name="NUCIND"> F  </i>
   <v name="MAGPOS">      0.00000000      0.00000000      0.00000000</v>
   <i type="logical" name="LNICSALL"> T  </i>
   <i type="logical" name="ORBITALMAG"> F  </i>
   <i type="logical" name="LMAGBLOCH"> F  </i>
   <i type="logical" name="LCHIMAG"> F  </i>
   <i type="logical" name="LGAUGE"> T  </i>
   <i type="int" name="MAGATOM">     0</i>
   <v name="MAGDIPOL">      0.00000000      0.00000000      0.00000000</v>
   <v name="AVECCONST">      0.00000000      0.00000000      0.00000000</v>
  </separator>
  <separator name="response functions" >
   <i type="logical" name="LADDER"> F  </i>
   <i type="logical" name="LRPAFORCE"> F  </i>
   <i type="logical" name="LFXC"> F  </i>
   <i type="logical" name="LHARTREE"> T  </i>
   <i type="int" name="IBSE">     0</i>
   <v type="int" name="KPOINT">    -1     0     0     0</v>
   <i type="logical" name="LTCTE"> F  </i>
   <i type="logical" name="LTETE"> F  </i>
   <i type="logical" name="LTRIPLET"> F  </i>
   <i type="logical" name="LFXCEPS"> F  </i>
   <i type="logical" name="LFXHEG"> F  </i>
   <i type="int" name="NATURALO">     2</i>
   <i type="logical" name="L2ORDER"> F  </i>
   <i type="logical" name="LMP2LT"> F  </i>
   <i type="logical" name="LUSEW"> F  </i>
   <i name="ENCUTGW">     -2.00000000</i>
   <i name="ENCUTGWSOFT">     -2.00000000</i>
   <i name="ENCUTLF">     -1.00000000</i>
   <i type="int" name="LMAXMP2">    -1</i>
   <i name="SCISSOR">      0.00000000</i>
   <i type="int" name="NOMEGA">     0</i>
   <i type="int" name="NOMEGAR">     0</i>
   <i type="int" name="NBANDSGW">    -1</i>
   <i type="int" name="NBANDSO">    -1</i>
   <i type="int" name="NBANDSV">    -1</i>
   <i type="int" name="NELM">   200</i>
   <i type="int" name="NELMHF">     1</i>
   <i type="int" name="DIM">     3</i>
   <i type="int" name="ANTIRES">     0</i>
   <i name="OMEGAMAX">    -30.00000000</i>
   <i name="OMEGAMIN">    -30.00000000</i>
   <i name="OMEGATL">   -200.00000000</i>
   <i type="int" name="OMEGAGRID">   140</i>
   <i name="CSHIFT">     -0.10000000</i>
   <i type="logical" name="SELFENERGY"> F  </i>
   <i type="logical" name="LSPECTRAL"> F  </i>
   <i type="logical" name="LSPECTRALGW"> F  </i>
   <i type="logical" name="LSINGLES"> F  </i>
   <i type="logical" name="LFERMIGW"> F  </i>
   <i type="logical" name="ODDONLYGW"> F  </i>
   <i type="logical" name="EVENONLYGW"> F  </i>
   <i type="int" name="NKREDLFX">     1</i>
   <i type="int" name="NKREDLFY">     1</i>
   <i type="int" name="NKREDLFZ">     1</i>
   <i type="int" name="MAXMEM">  2800</i>
   <i type="int" name="TELESCOPE">     0</i>
   <i type="int" name="TAUPAR">     1</i>
   <i type="int" name="OMEGAPAR">    -1</i>
   <i name="LAMBDA">      1.00000000</i>
  </separator>
  <separator name="External order field" >
   <i name="OFIELD_KAPPA">      0.00000000</i>
   <v name="OFIELD_K">      0.00000000      0.00000000      0.00000000</v>
   <i name="OFIELD_Q6_NEAR">      0.00000000</i>
   <i name="OFIELD_Q6_FAR">      0.00000000</i>
   <i name="OFIELD_A">      0.00000000</i>
  </separator>
  <separator name="solvation model" >
   <i type="logical" name="LSOL"> F  </i>
  </separator>
 </parameters>
 <atominfo>
  <atoms>     144 </atoms>
  <types>       4 </types>
  <array name="atoms" >
   <dimension dim="1">ion</dimension>
   <field type="string">element</field>
   <field type="int">atomtype</field>
   <set>
    <rc><c>O </c><c>   1</c></rc>
    <rc><c>O </c><c>   1</c></rc>
    <rc><c>O </c><c>   1</c></rc>
    <rc><c>O </c><c>   1</c></rc>
    <rc><c>O </c><c>   1</c></rc>
    <rc><c>O </c><c>   1</c></rc>
    <rc><c>O </c><c>   1</c></rc>
    <rc><c>O </c><c>   1</c></rc>
    <rc><c>O </c><c>   1</c></rc>
    <rc><c>O </c><c>   1</c></rc>
    <rc><c>O </c><c>   1</c></rc>
    <rc><c>O </c><c>   1</c></rc>
    <rc><c>O </c><c>   1</c></rc>
    <rc><c>O </c><c>   1</c></rc>
    <rc><c>O </c><c>   1</c></rc>
    <rc><c>O </c><c>   1</c></rc>
    <rc><c>O </c><c>   1</c></rc>
    <rc><c>O </c><c>   1</c></rc>
    <rc><c>O </c><c>   1</c></rc>
    <rc><c>O </c><c>   1</c></rc>
    <rc><c>O </c><c>   1</c></rc>
    <rc><c>O </c><c>   1</c></rc>
    <rc><c>O </c><c>   1</c></rc>
    <rc><c>O </c><c>   1</c></rc>
    <rc><c>C </c><c>   2</c></rc>
    <rc><c>C </c><c>   2</c></rc>
    <rc><c>C </c><c>   2</c></rc>
    <rc><c>C </c><c>   2</c></rc>
    <rc><c>C </c><c>   2</c></rc>
    <rc><c>C </c><c>   2</c></rc>
    <rc><c>C </c><c>   2</c></rc>
    <rc><c>C </c><c>   2</c></rc>
    <rc><c>C </c><c>   2</c></rc>
    <rc><c>C </c><c>   2</c></rc>
    <rc><c>C </c><c>   2</c></rc>
    <rc><c>C </c><c>   2</c></rc>
    <rc><c>C </c><c>   2</c></rc>
    <rc><c>C </c><c>   2</c></rc>
    <rc><c>C </c><c>   2</c></rc>
    <rc><c>C </c><c>   2</c></rc>
    <rc><c>C </c><c>   2</c></rc>
    <rc><c>C </c><c>   2</c></rc>
    <rc><c>C </c><c>   2</c></rc>
    <rc><c>C </c><c>   2</c></rc>
    <rc><c>C </c><c>   2</c></rc>
    <rc><c>C </c><c>   2</c></rc>
    <rc><c>C </c><c>   2</c></rc>
    <rc><c>C </c><c>   2</c></rc>
    <rc><c>C </c><c>   2</c></rc>
    <rc><c>C </c><c>   2</c></rc>
    <rc><c>C </c><c>   2</c></rc>
    <rc><c>C </c><c>   2</c></rc>
    <rc><c>C </c><c>   2</c></rc>
    <rc><c>C </c><c>   2</c></rc>
    <rc><c>C </c><c>   2</c></rc>
    <rc><c>C </c><c>   2</c></rc>
    <rc><c>C </c><c>   2</c></rc>
    <rc><c>C </c><c>   2</c></rc>
    <rc><c>C </c><c>   2</c></rc>
    <rc><c>C </c><c>   2</c></rc>
    <rc><c>C </c><c>   2</c></rc>
    <rc><c>C </c><c>   2</c></rc>
    <rc><c>C </c><c>   2</c></rc>
    <rc><c>C </c><c>   2</c></rc>
    <rc><c>C </c><c>   2</c></rc>
    <rc><c>C </c><c>   2</c></rc>
    <rc><c>C </c><c>   2</c></rc>
    <rc><c>C </c><c>   2</c></rc>
    <rc><c>C </c><c>   2</c></rc>
    <rc><c>C </c><c>   2</c></rc>
    <rc><c>C </c><c>   2</c></rc>
    <rc><c>C </c><c>   2</c></rc>
    <rc><c>C </c><c>   2</c></rc>
    <rc><c>C </c><c>   2</c></rc>
    <rc><c>C </c><c>   2</c></rc>
    <rc><c>C </c><c>   2</c></rc>
    <rc><c>C </c><c>   2</c></rc>
    <rc><c>C </c><c>   2</c></rc>
    <rc><c>C </c><c>   2</c></rc>
    <rc><c>C </c><c>   2</c></rc>
    <rc><c>C </c><c>   2</c></rc>
    <rc><c>C </c><c>   2</c></rc>
    <rc><c>C </c><c>   2</c></rc>
    <rc><c>C </c><c>   2</c></rc>
    <rc><c>N </c><c>   3</c></rc>
    <rc><c>N </c><c>   3</c></rc>
    <rc><c>N </c><c>   3</c></rc>
    <rc><c>N </c><c>   3</c></rc>
    <rc><c>N </c><c>   3</c></rc>
    <rc><c>N </c><c>   3</c></rc>
    <rc><c>N </c><c>   3</c></rc>
    <rc><c>N </c><c>   3</c></rc>
    <rc><c>N </c><c>   3</c></rc>
    <rc><c>N </c><c>   3</c></rc>
    <rc><c>N </c><c>   3</c></rc>
    <rc><c>N </c><c>   3</c></rc>
    <rc><c>N </c><c>   3</c></rc>
    <rc><c>N </c><c>   3</c></rc>
    <rc><c>N </c><c>   3</c></rc>
    <rc><c>N </c><c>   3</c></rc>
    <rc><c>N </c><c>   3</c></rc>
    <rc><c>N </c><c>   3</c></rc>
    <rc><c>N </c><c>   3</c></rc>
    <rc><c>N </c><c>   3</c></rc>
    <rc><c>N </c><c>   3</c></rc>
    <rc><c>N </c><c>   3</c></rc>
    <rc><c>N </c><c>   3</c></rc>
    <rc><c>N </c><c>   3</c></rc>
    <rc><c>N </c><c>   3</c></rc>
    <rc><c>N </c><c>   3</c></rc>
    <rc><c>N </c><c>   3</c></rc>
    <rc><c>N </c><c>   3</c></rc>
    <rc><c>N </c><c>   3</c></rc>
    <rc><c>N </c><c>   3</c></rc>
    <rc><c>N </c><c>   3</c></rc>
    <rc><c>N </c><c>   3</c></rc>
    <rc><c>N </c><c>   3</c></rc>
    <rc><c>N </c><c>   3</c></rc>
    <rc><c>N </c><c>   3</c></rc>
    <rc><c>N </c><c>   3</c></rc>
    <rc><c>H </c><c>   4</c></rc>
    <rc><c>H </c><c>   4</c></rc>
    <rc><c>H </c><c>   4</c></rc>
    <rc><c>H </c><c>   4</c></rc>
    <rc><c>H </c><c>   4</c></rc>
    <rc><c>H </c><c>   4</c></rc>
    <rc><c>H </c><c>   4</c></rc>
    <rc><c>H </c><c>   4</c></rc>
    <rc><c>H </c><c>   4</c></rc>
    <rc><c>H </c><c>   4</c></rc>
    <rc><c>H </c><c>   4</c></rc>
    <rc><c>H </c><c>   4</c></rc>
    <rc><c>H </c><c>   4</c></rc>
    <rc><c>H </c><c>   4</c></rc>
    <rc><c>H </c><c>   4</c></rc>
    <rc><c>H </c><c>   4</c></rc>
    <rc><c>H </c><c>   4</c></rc>
    <rc><c>H </c><c>   4</c></rc>
    <rc><c>H </c><c>   4</c></rc>
    <rc><c>H </c><c>   4</c></rc>
    <rc><c>H </c><c>   4</c></rc>
    <rc><c>H </c><c>   4</c></rc>
    <rc><c>H </c><c>   4</c></rc>
    <rc><c>H </c><c>   4</c></rc>
   </set>
  </array>
  <array name="atomtypes" >
   <dimension dim="1">type</dimension>
   <field type="int">atomspertype</field>
   <field type="string">element</field>
   <field>mass</field>
   <field>valence</field>
   <field type="string">pseudopotential</field>
   <set>
    <rc><c>  24</c><c>O </c><c>     16.00000000</c><c>      6.00000000</c><c>  PAW_PBE O 08Apr2002                   </c></rc>
    <rc><c>  60</c><c>C </c><c>     12.01100000</c><c>      4.00000000</c><c>  PAW_PBE C 08Apr2002                   </c></rc>
    <rc><c>  36</c><c>N </c><c>     14.00100000</c><c>      5.00000000</c><c>  PAW_PBE N 08Apr2002                   </c></rc>
    <rc><c>  24</c><c>H </c><c>      1.00000000</c><c>      1.00000000</c><c>  PAW_PBE H 15Jun2001                   </c></rc>
   </set>
  </array>
 </atominfo>
 <structure name="initialpos" >
  <crystal>
   <varray name="basis" >
    <v>      33.94605484      -0.00191934       0.00000000 </v>
    <v>     -16.97477648      29.44610463       0.00000000 </v>
    <v>       0.00000000       0.00000000      20.00000000 </v>
   </varray>
   <i name="volume">  19990.93004641 </i>
   <varray name="rec_basis" >
    <v>       0.02945946       0.01698248       0.00000000 </v>
    <v>       0.00000192       0.03396146       0.00000000 </v>
    <v>       0.00000000       0.00000000       0.05000000 </v>
   </varray>
  </crystal>
  <varray name="positions" >
   <v>       0.91620372       0.19365892       0.35797774 </v>
   <v>       0.84222290       0.14786110       0.34671601 </v>
   <v>       0.80163270       0.73822937       0.35511337 </v>
   <v>       0.84771477       0.71022587       0.34562877 </v>
   <v>       0.84811003       0.44099282       0.31045567 </v>
   <v>       0.84923956       0.50271952       0.34653128 </v>
   <v>       0.25620020       0.07945756       0.35625241 </v>
   <v>       0.28420408       0.15341300       0.34609546 </v>
   <v>       0.55512355       0.42039581       0.30911190 </v>
   <v>       0.49177610       0.36223912       0.34649239 </v>
   <v>       0.57175665       0.14541695       0.31241363 </v>
   <v>       0.63209299       0.14405775       0.34948955 </v>
   <v>       0.82230918       0.12007370       0.62299849 </v>
   <v>       0.80989526       0.04993809       0.62561426 </v>
   <v>       0.87210112       0.71839221       0.62330208 </v>
   <v>       0.94256172       0.77561780       0.62662649 </v>
   <v>       0.82717556       0.48599744       0.63794084 </v>
   <v>       0.75991609       0.45992787       0.59043856 </v>
   <v>       0.27592544       0.17181596       0.62288904 </v>
   <v>       0.21764061       0.18346798       0.62598695 </v>
   <v>       0.53601123       0.31612526       0.59011472 </v>
   <v>       0.50914444       0.35655271       0.63776531 </v>
   <v>       0.67801561       0.23465677       0.59243174 </v>
   <v>       0.63694391       0.16762028       0.64030495 </v>
   <v>       0.81287416       0.20946505       0.47828267 </v>
   <v>       0.80753988       0.27267108       0.47649595 </v>
   <v>       0.90567357       0.08467813       0.47469039 </v>
   <v>       0.90707981       0.11513691       0.42625412 </v>
   <v>       0.87950945       0.13432067       0.43301397 </v>
   <v>       0.93480897       0.06452526       0.46740410 </v>
   <v>       0.90938450       0.83659630       0.47368787 </v>
   <v>       0.87942661       0.80756435       0.42477135 </v>
   <v>       0.86021168       0.76087269       0.43166677 </v>
   <v>       0.92962307       0.88581913       0.46637045 </v>
   <v>       0.82045430       0.46672448       0.47207170 </v>
   <v>       0.83330678       0.44514983       0.42339314 </v>
   <v>       0.83563954       0.40629467       0.43602758 </v>
   <v>       0.80677938       0.50050607       0.45543941 </v>
   <v>       0.78501190       0.61921866       0.47653223 </v>
   <v>       0.72175176       0.55075135       0.47511463 </v>
   <v>       0.37517131       0.18179223       0.47745314 </v>
   <v>       0.44348463       0.18643464       0.47586495 </v>
   <v>       0.15750006       0.08877743       0.47396897 </v>
   <v>       0.18668228       0.08786158       0.42526638 </v>
   <v>       0.23340467       0.11556308       0.43214436 </v>
   <v>       0.10824526       0.05947464       0.46678083 </v>
   <v>       0.52826143       0.36921090       0.47183974 </v>
   <v>       0.54978917       0.40341225       0.42290679 </v>
   <v>       0.58843172       0.44478081       0.43536913 </v>
   <v>       0.49440978       0.32179461       0.45545823 </v>
   <v>       0.62465762       0.17369538       0.47423842 </v>
   <v>       0.59025024       0.16041975       0.42541211 </v>
   <v>       0.54888220       0.15785649       0.43760852 </v>
   <v>       0.67218508       0.18753927       0.45764733 </v>
   <v>       0.96222658       0.01797381       0.50292912 </v>
   <v>       0.97591211       0.95959202       0.50256828 </v>
   <v>       0.85165599       0.12678076       0.48913011 </v>
   <v>       0.85168113       0.09623422       0.53692769 </v>
   <v>       0.87683680       0.07457021       0.53011083 </v>
   <v>       0.82461464       0.14937970       0.49707454 </v>
   <v>       0.86720229       0.74063166       0.48834771 </v>
   <v>       0.89717628       0.77119194       0.53666891 </v>
   <v>       0.91890792       0.81794249       0.52975286 </v>
   <v>       0.84464122       0.69107997       0.49646766 </v>
   <v>       0.82562051       0.38731728       0.50041509 </v>
   <v>       0.81664285       0.40990312       0.55155738 </v>
   <v>       0.81404702       0.44852592       0.53677614 </v>
   <v>       0.81831171       0.34159824       0.51290562 </v>
   <v>       0.79077801       0.55612034       0.48327757 </v>
   <v>       0.03431546       0.03155170       0.50311601 </v>
   <v>       0.74396943       0.20379149       0.48524878 </v>
   <v>       0.43872759       0.25033805       0.48395168 </v>
   <v>       0.25359468       0.14309866       0.48856949 </v>
   <v>       0.22285286       0.14259597       0.53658484 </v>
   <v>       0.17605506       0.11728972       0.52968707 </v>
   <v>       0.30324341       0.17013680       0.49666043 </v>
   <v>       0.60720136       0.45418386       0.49990379 </v>
   <v>       0.58477534       0.42272852       0.55120577 </v>
   <v>       0.54645900       0.38124572       0.53651069 </v>
   <v>       0.65283189       0.49284531       0.51222861 </v>
   <v>       0.53971513       0.16804449       0.50175501 </v>
   <v>       0.57123140       0.17737340       0.55312846 </v>
   <v>       0.61267275       0.18023516       0.53873658 </v>
   <v>       0.50121958       0.17539834       0.51348487 </v>
   <v>       0.83506380       0.25501287       0.47420635 </v>
   <v>       0.84068860       0.18988576       0.47443039 </v>
   <v>       0.82629439       0.31934967       0.46855094 </v>
   <v>       0.80456067       0.66649466       0.47234104 </v>
   <v>       0.87909781       0.16150309       0.37510236 </v>
   <v>       0.83366601       0.73332610       0.37330141 </v>
   <v>       0.84433660       0.46426993       0.35466295 </v>
   <v>       0.73940154       0.59585493       0.47276637 </v>
   <v>       0.74537234       0.52868751       0.47972762 </v>
   <v>       0.67498895       0.52278941       0.46751279 </v>
   <v>       0.39828459       0.15928957       0.47352748 </v>
   <v>       0.32776076       0.15430251       0.47334711 </v>
   <v>       0.47116569       0.16726915       0.46871247 </v>
   <v>       0.26105086       0.11639833       0.37399813 </v>
   <v>       0.53093396       0.39477685       0.35402327 </v>
   <v>       0.59858774       0.14918124       0.35699336 </v>
   <v>       0.94448659       0.97263510       0.50245377 </v>
   <v>       0.96056592       0.91333273       0.50644639 </v>
   <v>       0.93123739       0.03330592       0.50700292 </v>
   <v>       0.81262580       0.60151808       0.48199872 </v>
   <v>       0.81601202       0.53439761       0.49323290 </v>
   <v>       0.82566903       0.08796568       0.60004910 </v>
   <v>       0.90467288       0.75354257       0.60045171 </v>
   <v>       0.79931162       0.46704778       0.59265308 </v>
   <v>       0.00667355       0.04930385       0.50351263 </v>
   <v>       0.02132260       0.98715505       0.50297054 </v>
   <v>       0.08059099       0.06256950       0.50702741 </v>
   <v>       0.76188075       0.24913290       0.48148805 </v>
   <v>       0.76755692       0.18194893       0.48382989 </v>
   <v>       0.69706092       0.17863677       0.49557051 </v>
   <v>       0.46591491       0.23209535       0.48022970 </v>
   <v>       0.39328091       0.22709267       0.48302213 </v>
   <v>       0.46078107       0.29725138       0.49377557 </v>
   <v>       0.24028646       0.16820664       0.60005896 </v>
   <v>       0.52833068       0.34800291       0.59239901 </v>
   <v>       0.64584565       0.19528145       0.59476139 </v>
   <v>       0.92914835       0.12363586       0.38262357 </v>
   <v>       0.95989518       0.07765630       0.42638125 </v>
   <v>       0.87137296       0.82110994       0.38067693 </v>
   <v>       0.91681227       0.89784026       0.42501325 </v>
   <v>       0.84382039       0.38992536       0.39583926 </v>
   <v>       0.78434469       0.49220265       0.41167103 </v>
   <v>       0.17324659       0.06606394       0.38137107 </v>
   <v>       0.09633532       0.03473253       0.42534170 </v>
   <v>       0.60485007       0.46911827       0.39497456 </v>
   <v>       0.50228513       0.30765244       0.41130000 </v>
   <v>       0.52436586       0.14941056       0.39727375 </v>
   <v>       0.68611875       0.20972283       0.41362090 </v>
   <v>       0.87521336       0.05092387       0.56825406 </v>
   <v>       0.94213552       0.83999316       0.56827249 </v>
   <v>       0.86292091       0.67655128       0.52250812 </v>
   <v>       0.80947522       0.39626273       0.60229199 </v>
   <v>       0.79126399       0.13075291       0.52156290 </v>
   <v>       0.80235706       0.32619191       0.56121573 </v>
   <v>       0.15390620       0.11853640       0.56801297 </v>
   <v>       0.31782885       0.20315874       0.52198206 </v>
   <v>       0.59834192       0.42949209       0.60199491 </v>
   <v>       0.66831385       0.49266630       0.56066460 </v>
   <v>       0.56455006       0.18463707       0.60369387 </v>
   <v>       0.50162833       0.19166775       0.56142782 </v>
  </varray>
 </structure>
 <calculation>
  <scstep>
   <time name="dav">  668.94  675.43</time>
   <time name="total">  669.33  675.84</time>
   <energy>
    <i name="alphaZ">     77.12935260 </i>
    <i name="ewald">  84083.34020480 </i>
    <i name="hartreedc">-107835.69892138 </i>
    <i name="XCdc">   2293.30916828 </i>
    <i name="pawpsdc">  55721.36955882 </i>
    <i name="pawaedc"> -55857.94886988 </i>
    <i name="eentropy">     -0.00000000 </i>
    <i name="bandstr">  -8552.44898514 </i>
    <i name="atom">  29028.38862825 </i>
    <i name="e_fr_energy">  -1042.55986364 </i>
    <i name="e_wo_entrp">  -1042.55986364 </i>
    <i name="e_0_energy">  -1042.55986364 </i>
   </energy>
  </scstep>
  <scstep>
   <time name="dav">  749.30  756.47</time>
   <time name="total">  749.33  756.49</time>
   <energy>
    <i name="e_fr_energy">  -1043.19715474 </i>
    <i name="e_wo_entrp">  -1043.19715474 </i>
    <i name="e_0_energy">  -1043.19715474 </i>
   </energy>
  </scstep>
  <scstep>
   <time name="dav">  861.25  870.12</time>
   <time name="total">  861.30  870.16</time>
   <energy>
    <i name="e_fr_energy">  -1043.21414472 </i>
    <i name="e_wo_entrp">  -1043.21414472 </i>
    <i name="e_0_energy">  -1043.21414472 </i>
   </energy>
  </scstep>
  <scstep>
   <time name="dav">  739.94  747.56</time>
   <time name="total">  739.97  747.60</time>
   <energy>
    <i name="e_fr_energy">  -1043.21445810 </i>
    <i name="e_wo_entrp">  -1043.21445810 </i>
    <i name="e_0_energy">  -1043.21445810 </i>
   </energy>
  </scstep>
  <scstep>
   <time name="dav">  676.09  683.25</time>
   <time name="total">  676.11  683.28</time>
   <energy>
    <i name="e_fr_energy">  -1043.21447154 </i>
    <i name="e_wo_entrp">  -1043.21447154 </i>
    <i name="e_0_energy">  -1043.21447154 </i>
   </energy>
  </scstep>
  <scstep>
   <time name="dav">  544.47  550.44</time>
   <time name="total">  544.49  550.46</time>
   <energy>
    <i name="alphaZ">     77.12935260 </i>
    <i name="ewald">  84083.34020480 </i>
    <i name="hartreedc">-107835.69892138 </i>
    <i name="XCdc">   2293.30916828 </i>
    <i name="pawpsdc">  55721.36955882 </i>
    <i name="pawaedc"> -55857.94886988 </i>
    <i name="eentropy">     -0.00000000 </i>
    <i name="bandstr">  -8553.10359354 </i>
    <i name="atom">  29028.38862825 </i>
    <i name="e_fr_energy">  -1043.21447204 </i>
    <i name="e_wo_entrp">  -1043.21447204 </i>
    <i name="e_0_energy">  -1043.21447204 </i>
   </energy>
  </scstep>
  <structure>
   <crystal>
    <varray name="basis" >
     <v>      33.94605484      -0.00191934       0.00000000 </v>
     <v>     -16.97477648      29.44610463       0.00000000 </v>
     <v>       0.00000000       0.00000000      20.00000000 </v>
    </varray>
    <i name="volume">  19990.93004641 </i>
    <varray name="rec_basis" >
     <v>       0.02945946       0.01698248       0.00000000 </v>
     <v>       0.00000192       0.03396146       0.00000000 </v>
     <v>       0.00000000       0.00000000       0.05000000 </v>
    </varray>
   </crystal>
   <varray name="positions" >
    <v>       0.91620372       0.19365892       0.35797774 </v>
    <v>       0.84222290       0.14786110       0.34671601 </v>
    <v>       0.80163270       0.73822937       0.35511337 </v>
    <v>       0.84771477       0.71022587       0.34562877 </v>
    <v>       0.84811003       0.44099282       0.31045567 </v>
    <v>       0.84923956       0.50271952       0.34653128 </v>
    <v>       0.25620020       0.07945756       0.35625241 </v>
    <v>       0.28420408       0.15341300       0.34609546 </v>
    <v>       0.55512355       0.42039581       0.30911190 </v>
    <v>       0.49177610       0.36223912       0.34649239 </v>
    <v>       0.57175665       0.14541695       0.31241363 </v>
    <v>       0.63209299       0.14405775       0.34948955 </v>
    <v>       0.82230918       0.12007370       0.62299849 </v>
    <v>       0.80989526       0.04993809       0.62561426 </v>
    <v>       0.87210112       0.71839221       0.62330208 </v>
    <v>       0.94256172       0.77561780       0.62662649 </v>
    <v>       0.82717556       0.48599744       0.63794084 </v>
    <v>       0.75991609       0.45992787       0.59043856 </v>
    <v>       0.27592544       0.17181596       0.62288904 </v>
    <v>       0.21764061       0.18346798       0.62598695 </v>
    <v>       0.53601123       0.31612526       0.59011472 </v>
    <v>       0.50914444       0.35655271       0.63776531 </v>
    <v>       0.67801561       0.23465677       0.59243174 </v>
    <v>       0.63694391       0.16762028       0.64030495 </v>
    <v>       0.81287416       0.20946505       0.47828267 </v>
    <v>       0.80753988       0.27267108       0.47649595 </v>
    <v>       0.90567357       0.08467813       0.47469039 </v>
    <v>       0.90707981       0.11513691       0.42625412 </v>
    <v>       0.87950945       0.13432067       0.43301397 </v>
    <v>       0.93480897       0.06452526       0.46740410 </v>
    <v>       0.90938450       0.83659630       0.47368787 </v>
    <v>       0.87942661       0.80756435       0.42477135 </v>
    <v>       0.86021168       0.76087269       0.43166677 </v>
    <v>       0.92962307       0.88581913       0.46637045 </v>
    <v>       0.82045430       0.46672448       0.47207170 </v>
    <v>       0.83330678       0.44514983       0.42339314 </v>
    <v>       0.83563954       0.40629467       0.43602758 </v>
    <v>       0.80677938       0.50050607       0.45543941 </v>
    <v>       0.78501190       0.61921866       0.47653223 </v>
    <v>       0.72175176       0.55075135       0.47511463 </v>
    <v>       0.37517131       0.18179223       0.47745314 </v>
    <v>       0.44348463       0.18643464       0.47586495 </v>
    <v>       0.15750006       0.08877743       0.47396897 </v>
    <v>       0.18668228       0.08786158       0.42526638 </v>
    <v>       0.23340467       0.11556308       0.43214436 </v>
    <v>       0.10824526       0.05947464       0.46678083 </v>
    <v>       0.52826143       0.36921090       0.47183974 </v>
    <v>       0.54978917       0.40341225       0.42290679 </v>
    <v>       0.58843172       0.44478081       0.43536913 </v>
    <v>       0.49440978       0.32179461       0.45545823 </v>
    <v>       0.62465762       0.17369538       0.47423842 </v>
    <v>       0.59025024       0.16041975       0.42541211 </v>
    <v>       0.54888220       0.15785649       0.43760852 </v>
    <v>       0.67218508       0.18753927       0.45764733 </v>
    <v>       0.96222658       0.01797381       0.50292912 </v>
    <v>       0.97591211       0.95959202       0.50256828 </v>
    <v>       0.85165599       0.12678076       0.48913011 </v>
    <v>       0.85168113       0.09623422       0.53692769 </v>
    <v>       0.87683680       0.07457021       0.53011083 </v>
    <v>       0.82461464       0.14937970       0.49707454 </v>
    <v>       0.86720229       0.74063166       0.48834771 </v>
    <v>       0.89717628       0.77119194       0.53666891 </v>
    <v>       0.91890792       0.81794249       0.52975286 </v>
    <v>       0.84464122       0.69107997       0.49646766 </v>
    <v>       0.82562051       0.38731728       0.50041509 </v>
    <v>       0.81664285       0.40990312       0.55155738 </v>
    <v>       0.81404702       0.44852592       0.53677614 </v>
    <v>       0.81831171       0.34159824       0.51290562 </v>
    <v>       0.79077801       0.55612034       0.48327757 </v>
    <v>       0.03431546       0.03155170       0.50311601 </v>
    <v>       0.74396943       0.20379149       0.48524878 </v>
    <v>       0.43872759       0.25033805       0.48395168 </v>
    <v>       0.25359468       0.14309866       0.48856949 </v>
    <v>       0.22285286       0.14259597       0.53658484 </v>
    <v>       0.17605506       0.11728972       0.52968707 </v>
    <v>       0.30324341       0.17013680       0.49666043 </v>
    <v>       0.60720136       0.45418386       0.49990379 </v>
    <v>       0.58477534       0.42272852       0.55120577 </v>
    <v>       0.54645900       0.38124572       0.53651069 </v>
    <v>       0.65283189       0.49284531       0.51222861 </v>
    <v>       0.53971513       0.16804449       0.50175501 </v>
    <v>       0.57123140       0.17737340       0.55312846 </v>
    <v>       0.61267275       0.18023516       0.53873658 </v>
    <v>       0.50121958       0.17539834       0.51348487 </v>
    <v>       0.83506380       0.25501287       0.47420635 </v>
    <v>       0.84068860       0.18988576       0.47443039 </v>
    <v>       0.82629439       0.31934967       0.46855094 </v>
    <v>       0.80456067       0.66649466       0.47234104 </v>
    <v>       0.87909781       0.16150309       0.37510236 </v>
    <v>       0.83366601       0.73332610       0.37330141 </v>
    <v>       0.84433660       0.46426993       0.35466295 </v>
    <v>       0.73940154       0.59585493       0.47276637 </v>
    <v>       0.74537234       0.52868751       0.47972762 </v>
    <v>       0.67498895       0.52278941       0.46751279 </v>
    <v>       0.39828459       0.15928957       0.47352748 </v>
    <v>       0.32776076       0.15430251       0.47334711 </v>
    <v>       0.47116569       0.16726915       0.46871247 </v>
    <v>       0.26105086       0.11639833       0.37399813 </v>
    <v>       0.53093396       0.39477685       0.35402327 </v>
    <v>       0.59858774       0.14918124       0.35699336 </v>
    <v>       0.94448659       0.97263510       0.50245377 </v>
    <v>       0.96056592       0.91333273       0.50644639 </v>
    <v>       0.93123739       0.03330592       0.50700292 </v>
    <v>       0.81262580       0.60151808       0.48199872 </v>
    <v>       0.81601202       0.53439761       0.49323290 </v>
    <v>       0.82566903       0.08796568       0.60004910 </v>
    <v>       0.90467288       0.75354257       0.60045171 </v>
    <v>       0.79931162       0.46704778       0.59265308 </v>
    <v>       0.00667355       0.04930385       0.50351263 </v>
    <v>       0.02132260       0.98715505       0.50297054 </v>
    <v>       0.08059099       0.06256950       0.50702741 </v>
    <v>       0.76188075       0.24913290       0.48148805 </v>
    <v>       0.76755692       0.18194893       0.48382989 </v>
    <v>       0.69706092       0.17863677       0.49557051 </v>
    <v>       0.46591491       0.23209535       0.48022970 </v>
    <v>       0.39328091       0.22709267       0.48302213 </v>
    <v>       0.46078107       0.29725138       0.49377557 </v>
    <v>       0.24028646       0.16820664       0.60005896 </v>
    <v>       0.52833068       0.34800291       0.59239901 </v>
    <v>       0.64584565       0.19528145       0.59476139 </v>
    <v>       0.92914835       0.12363586       0.38262357 </v>
    <v>       0.95989518       0.07765630       0.42638125 </v>
    <v>       0.87137296       0.82110994       0.38067693 </v>
    <v>       0.91681227       0.89784026       0.42501325 </v>
    <v>       0.84382039       0.38992536       0.39583926 </v>
    <v>       0.78434469       0.49220265       0.41167103 </v>
    <v>       0.17324659       0.06606394       0.38137107 </v>
    <v>       0.09633532       0.03473253       0.42534170 </v>
    <v>       0.60485007       0.46911827       0.39497456 </v>
    <v>       0.50228513       0.30765244       0.41130000 </v>
    <v>       0.52436586       0.14941056       0.39727375 </v>
    <v>       0.68611875       0.20972283       0.41362090 </v>
    <v>       0.87521336       0.05092387       0.56825406 </v>
    <v>       0.94213552       0.83999316       0.56827249 </v>
    <v>       0.86292091       0.67655128       0.52250812 </v>
    <v>       0.80947522       0.39626273       0.60229199 </v>
    <v>       0.79126399       0.13075291       0.52156290 </v>
    <v>       0.80235706       0.32619191       0.56121573 </v>
    <v>       0.15390620       0.11853640       0.56801297 </v>
    <v>       0.31782885       0.20315874       0.52198206 </v>
    <v>       0.59834192       0.42949209       0.60199491 </v>
    <v>       0.66831385       0.49266630       0.56066460 </v>
    <v>       0.56455006       0.18463707       0.60369387 </v>
    <v>       0.50162833       0.19166775       0.56142782 </v>
   </varray>
  </structure>
  <varray name="forces" >
   <v>      -0.00026802       0.00135207      -0.00109511 </v>
   <v>       0.00166502      -0.00001818       0.00118136 </v>
   <v>       0.00173743       0.00076198      -0.00057487 </v>
   <v>      -0.00189107       0.00153236      -0.00007618 </v>
   <v>      -0.00407914       0.00548506       0.00027238 </v>
   <v>      -0.00004632       0.00069966       0.00374467 </v>
   <v>       0.00023405       0.00012478      -0.00045342 </v>
   <v>      -0.00069932       0.00059865       0.00088360 </v>
   <v>       0.00211847       0.00298545      -0.00088800 </v>
   <v>       0.00034894      -0.00235947       0.00123527 </v>
   <v>       0.00122582      -0.00193539      -0.00140010 </v>
   <v>       0.00313767       0.00075566      -0.00042819 </v>
   <v>      -0.00134171       0.00157596       0.00148601 </v>
   <v>      -0.00143690      -0.00069520      -0.00035970 </v>
   <v>       0.00007369      -0.00005591      -0.00159000 </v>
   <v>       0.00270246       0.00140224      -0.00113938 </v>
   <v>       0.00070401      -0.00127555       0.00044511 </v>
   <v>      -0.00176821      -0.00155198       0.00083687 </v>
   <v>      -0.00214090      -0.00216487       0.00102563 </v>
   <v>       0.00019932      -0.00090104       0.00042251 </v>
   <v>      -0.00349125       0.00359839      -0.00346548 </v>
   <v>       0.00284840      -0.00042645       0.00043058 </v>
   <v>       0.00027538       0.00592943      -0.00521596 </v>
   <v>       0.00257558       0.00481624       0.00022871 </v>
   <v>      -0.00089969       0.00011029      -0.00113424 </v>
   <v>      -0.00017326      -0.00036498      -0.00018605 </v>
   <v>      -0.00122444       0.00035283      -0.00010826 </v>
   <v>      -0.00016615       0.00033373      -0.00143450 </v>
   <v>       0.00020900       0.00054955       0.00010444 </v>
   <v>      -0.00024905      -0.00109982       0.00073907 </v>
   <v>       0.00046946      -0.00313622      -0.00039297 </v>
   <v>      -0.00080601      -0.00036156      -0.00088572 </v>
   <v>      -0.00027644       0.00195634      -0.00017305 </v>
   <v>      -0.00068271      -0.00031926      -0.00007668 </v>
   <v>       0.00027485      -0.00043263       0.00110445 </v>
   <v>       0.00247793       0.00053679       0.00130388 </v>
   <v>      -0.00161817       0.00278529      -0.00038462 </v>
   <v>      -0.00168990       0.00066199       0.00054927 </v>
   <v>       0.00195809      -0.00304523      -0.00002006 </v>
   <v>      -0.00014660       0.00062620       0.00052882 </v>
   <v>      -0.00557315      -0.00332507      -0.00286731 </v>
   <v>      -0.00230197       0.00020272      -0.00107482 </v>
   <v>      -0.00076490      -0.00013576      -0.00029401 </v>
   <v>       0.00099313       0.00125060      -0.00039754 </v>
   <v>      -0.00067712      -0.00020363      -0.00043756 </v>
   <v>      -0.00271370      -0.00071979       0.00070332 </v>
   <v>       0.00173709       0.00209596      -0.00029012 </v>
   <v>       0.00118946      -0.00147780      -0.00111764 </v>
   <v>      -0.00067991      -0.00228476       0.00221408 </v>
   <v>       0.00097831       0.00170017       0.00008165 </v>
   <v>       0.00277366       0.00027489      -0.00006972 </v>
   <v>       0.00099852      -0.00102541      -0.00100803 </v>
   <v>       0.00075820      -0.00141195       0.00192864 </v>
   <v>       0.00348329      -0.00284116       0.00161030 </v>
   <v>      -0.00067381       0.00087959       0.00022656 </v>
   <v>      -0.00224538       0.00164903       0.00002033 </v>
   <v>      -0.00103371       0.00055814      -0.00015215 </v>
   <v>      -0.00068349      -0.00004135      -0.00033062 </v>
   <v>       0.00039303      -0.00067500       0.00009785 </v>
   <v>       0.00109852      -0.00106709       0.00026747 </v>
   <v>      -0.00111729      -0.00224250      -0.00006572 </v>
   <v>      -0.00169179       0.00094825      -0.00257208 </v>
   <v>       0.00087824      -0.00000322       0.00031928 </v>
   <v>      -0.00008647       0.00184279      -0.00155964 </v>
   <v>      -0.00153113       0.00129249       0.00042844 </v>
   <v>       0.00130900      -0.00218702       0.00012765 </v>
   <v>      -0.00031854      -0.00012585       0.00069764 </v>
   <v>       0.00011471       0.00090544      -0.00251081 </v>
   <v>       0.00030921      -0.00182830       0.00047098 </v>
   <v>      -0.00208361      -0.00095563       0.00039192 </v>
   <v>      -0.00128270       0.00009495       0.00205661 </v>
   <v>      -0.00184045       0.00027741       0.00043821 </v>
   <v>      -0.00276961      -0.00018885       0.00175713 </v>
   <v>      -0.00062009       0.00121275       0.00094748 </v>
   <v>      -0.00032526       0.00057492       0.00074289 </v>
   <v>      -0.00150718       0.00048139       0.00076158 </v>
   <v>       0.00222946      -0.00126053       0.00040222 </v>
   <v>       0.00289710      -0.00137099       0.00073797 </v>
   <v>      -0.00307936       0.00074132       0.00275586 </v>
   <v>       0.00222935      -0.00036012       0.00144776 </v>
   <v>       0.00123711      -0.00098743       0.00246510 </v>
   <v>      -0.00056032       0.00086918       0.00117175 </v>
   <v>      -0.00299337      -0.00044836      -0.00108186 </v>
   <v>       0.00108686       0.00013214       0.00125495 </v>
   <v>       0.00153890       0.00101423       0.00015558 </v>
   <v>       0.00308056       0.00056622       0.00023529 </v>
   <v>      -0.00043394      -0.00032504       0.00087589 </v>
   <v>       0.00072525       0.00167182       0.00005396 </v>
   <v>      -0.00247009      -0.00313931       0.00101168 </v>
   <v>      -0.00375518       0.00259617       0.00181198 </v>
   <v>      -0.00036251      -0.00080749      -0.00120541 </v>
   <v>      -0.00095166      -0.00202938      -0.00088520 </v>
   <v>       0.00042202       0.00206702       0.00080705 </v>
   <v>       0.00002057       0.00095837       0.00009190 </v>
   <v>      -0.00600418       0.00321828      -0.00244332 </v>
   <v>       0.00809092       0.00282816      -0.00172712 </v>
   <v>      -0.00090404      -0.00126962       0.00082546 </v>
   <v>      -0.00057616       0.00161242       0.00079734 </v>
   <v>      -0.00257692      -0.00216301      -0.00115087 </v>
   <v>      -0.00266029       0.00038298       0.00280084 </v>
   <v>      -0.00055074      -0.00225026      -0.00020504 </v>
   <v>       0.00170787       0.00187858       0.00089042 </v>
   <v>      -0.00199810      -0.00163272      -0.00217420 </v>
   <v>       0.00140765       0.00105011       0.00081640 </v>
   <v>      -0.00142791       0.00090510       0.00001711 </v>
   <v>       0.00184976      -0.00249389      -0.00023315 </v>
   <v>      -0.00058819      -0.00227516       0.00146391 </v>
   <v>       0.00178073       0.00006939       0.00173018 </v>
   <v>      -0.00041262      -0.00119845       0.00043755 </v>
   <v>       0.00195221       0.00315460       0.00118317 </v>
   <v>       0.00122643      -0.00021069       0.00033538 </v>
   <v>      -0.00001434      -0.00126156      -0.00015065 </v>
   <v>       0.00182719       0.00026001       0.00046570 </v>
   <v>      -0.00392589       0.00265073      -0.00280269 </v>
   <v>      -0.00015127      -0.00194816       0.00113429 </v>
   <v>       0.00384152      -0.00627905      -0.00046987 </v>
   <v>       0.00194550      -0.00476193       0.00113800 </v>
   <v>       0.00257633      -0.00133943      -0.00112771 </v>
   <v>       0.00505641       0.00378489       0.00162311 </v>
   <v>       0.00063883      -0.00210987       0.00061157 </v>
   <v>       0.00115864      -0.00052195      -0.00087528 </v>
   <v>       0.00096492      -0.00039021      -0.00105617 </v>
   <v>       0.00087925      -0.00121747       0.00101832 </v>
   <v>      -0.00028954      -0.00021796      -0.00043562 </v>
   <v>       0.00006137       0.00101774      -0.00097184 </v>
   <v>       0.00045418      -0.00043817       0.00090791 </v>
   <v>       0.00002741       0.00015280      -0.00024324 </v>
   <v>      -0.00111259       0.00060352       0.00026218 </v>
   <v>      -0.00150745       0.00080113      -0.00118448 </v>
   <v>       0.00080665      -0.00218723      -0.00184095 </v>
   <v>      -0.00111434       0.00083841      -0.00038277 </v>
   <v>       0.00030462       0.00028707       0.00043314 </v>
   <v>      -0.00048914      -0.00028675      -0.00047342 </v>
   <v>       0.00031737      -0.00039141       0.00001475 </v>
   <v>       0.00060938      -0.00056074       0.00027353 </v>
   <v>      -0.00064730       0.00052454      -0.00151157 </v>
   <v>      -0.00044578       0.00015549       0.00063578 </v>
   <v>      -0.00114979      -0.00093097      -0.00047602 </v>
   <v>      -0.00133706       0.00000143       0.00063137 </v>
   <v>       0.00115355      -0.00043583      -0.00216796 </v>
   <v>       0.00277428      -0.00192307      -0.00298252 </v>
   <v>       0.00081599      -0.00008092      -0.00076222 </v>
   <v>       0.00116473       0.00120419      -0.00128122 </v>
   <v>      -0.00100425       0.00061860      -0.00000630 </v>
  </varray>
  <varray name="stress" >
   <v>      -0.00021960       0.00205897      -0.00060492 </v>
   <v>       0.00205897       0.00099721       0.00498077 </v>
   <v>      -0.00060492       0.00498077      -0.23860775 </v>
  </varray>
  <energy>
   <i name="e_fr_energy">  -1046.28513130 </i>
   <i name="e_wo_entrp">  -1046.28513130 </i>
   <i name="e_0_energy">     -0.00000000 </i>
  </energy>
  <time name="totalsc"> 4939.81 4992.97</time>
  <eigenvalues>
   <array>
    <dimension dim="1">band</dimension>
    <dimension dim="2">kpoint</dimension>
    <dimension dim="3">spin</dimension>
    <field>eigene</field>
    <field>occ</field>
    <set>
     <set comment="spin 1">
      <set comment="kpoint 1">
       <r>  -31.3903    1.0000 </r>
       <r>  -31.3878    1.0000 </r>
       <r>  -31.3877    1.0000 </r>
       <r>  -31.3500    1.0000 </r>
       <r>  -31.3441    1.0000 </r>
       <r>  -31.3392    1.0000 </r>
       <r>  -31.2681    1.0000 </r>
       <r>  -31.2667    1.0000 </r>
       <r>  -31.2647    1.0000 </r>
       <r>  -31.1408    1.0000 </r>
       <r>  -31.1369    1.0000 </r>
       <r>  -31.1364    1.0000 </r>
       <r>  -27.0523    1.0000 </r>
       <r>  -27.0511    1.0000 </r>
       <r>  -27.0509    1.0000 </r>
       <r>  -26.9785    1.0000 </r>
       <r>  -26.9741    1.0000 </r>
       <r>  -26.9703    1.0000 </r>
       <r>  -26.9076    1.0000 </r>
       <r>  -26.9059    1.0000 </r>
       <r>  -26.9042    1.0000 </r>
       <r>  -26.8020    1.0000 </r>
       <r>  -26.7974    1.0000 </r>
       <r>  -26.7973    1.0000 </r>
       <r>  -26.4320    1.0000 </r>
       <r>  -26.3086    1.0000 </r>
       <r>  -26.3030    1.0000 </r>
       <r>  -26.3020    1.0000 </r>
       <r>  -24.7494    1.0000 </r>
       <r>  -24.7453    1.0000 </r>
       <r>  -24.6697    1.0000 </r>
       <r>  -24.6651    1.0000 </r>
       <r>  -24.6492    1.0000 </r>
       <r>  -24.5912    1.0000 </r>
       <r>  -24.5863    1.0000 </r>
       <r>  -24.5814    1.0000 </r>
       <r>  -23.7751    1.0000 </r>
       <r>  -23.6607    1.0000 </r>
       <r>  -23.6460    1.0000 </r>
       <r>  -23.6435    1.0000 </r>
       <r>  -23.3534    1.0000 </r>
       <r>  -23.3513    1.0000 </r>
       <r>  -23.2413    1.0000 </r>
       <r>  -23.1223    1.0000 </r>
       <r>  -23.1203    1.0000 </r>
       <r>  -22.9495    1.0000 </r>
       <r>  -22.4192    1.0000 </r>
       <r>  -22.3954    1.0000 </r>
       <r>  -22.3925    1.0000 </r>
       <r>  -22.3137    1.0000 </r>
       <r>  -22.3106    1.0000 </r>
       <r>  -22.0913    1.0000 </r>
       <r>  -22.0875    1.0000 </r>
       <r>  -22.0574    1.0000 </r>
       <r>  -21.3071    1.0000 </r>
       <r>  -21.3064    1.0000 </r>
       <r>  -21.3008    1.0000 </r>
       <r>  -21.1868    1.0000 </r>
       <r>  -21.1865    1.0000 </r>
       <r>  -21.1845    1.0000 </r>
       <r>  -20.8436    1.0000 </r>
       <r>  -20.8090    1.0000 </r>
       <r>  -20.8064    1.0000 </r>
       <r>  -20.7275    1.0000 </r>
       <r>  -20.7271    1.0000 </r>
       <r>  -20.7000    1.0000 </r>
       <r>  -18.9829    1.0000 </r>
       <r>  -18.9805    1.0000 </r>
       <r>  -18.9609    1.0000 </r>
       <r>  -18.8648    1.0000 </r>
       <r>  -18.8614    1.0000 </r>
       <r>  -18.8159    1.0000 </r>
       <r>  -18.3296    1.0000 </r>
       <r>  -18.3275    1.0000 </r>
       <r>  -18.2361    1.0000 </r>
       <r>  -18.2348    1.0000 </r>
       <r>  -18.1817    1.0000 </r>
       <r>  -18.1084    1.0000 </r>
       <r>  -18.1079    1.0000 </r>
       <r>  -18.1030    1.0000 </r>
       <r>  -18.0140    1.0000 </r>
       <r>  -17.9994    1.0000 </r>
       <r>  -17.9978    1.0000 </r>
       <r>  -17.8224    1.0000 </r>
       <r>  -17.5045    1.0000 </r>
       <r>  -17.4980    1.0000 </r>
       <r>  -17.4011    1.0000 </r>
       <r>  -16.9858    1.0000 </r>
       <r>  -16.8425    1.0000 </r>
       <r>  -16.8379    1.0000 </r>
       <r>  -16.2701    1.0000 </r>
       <r>  -16.2692    1.0000 </r>
       <r>  -15.8245    1.0000 </r>
       <r>  -15.8228    1.0000 </r>
       <r>  -15.7719    1.0000 </r>
       <r>  -15.4273    1.0000 </r>
       <r>  -15.3684    1.0000 </r>
       <r>  -15.3666    1.0000 </r>
       <r>  -15.2285    1.0000 </r>
       <r>  -15.2138    1.0000 </r>
       <r>  -15.2120    1.0000 </r>
       <r>  -15.1817    1.0000 </r>
       <r>  -14.9841    1.0000 </r>
       <r>  -14.9219    1.0000 </r>
       <r>  -14.9201    1.0000 </r>
       <r>  -14.6727    1.0000 </r>
       <r>  -14.6723    1.0000 </r>
       <r>  -14.6594    1.0000 </r>
       <r>  -14.5148    1.0000 </r>
       <r>  -14.5127    1.0000 </r>
       <r>  -14.4311    1.0000 </r>
       <r>  -14.3854    1.0000 </r>
       <r>  -14.3830    1.0000 </r>
       <r>  -14.3684    1.0000 </r>
       <r>  -14.3314    1.0000 </r>
       <r>  -14.3089    1.0000 </r>
       <r>  -14.3035    1.0000 </r>
       <r>  -14.1267    1.0000 </r>
       <r>  -14.0116    1.0000 </r>
       <r>  -13.9743    1.0000 </r>
       <r>  -13.9714    1.0000 </r>
       <r>  -13.8583    1.0000 </r>
       <r>  -13.8522    1.0000 </r>
       <r>  -13.7688    1.0000 </r>
       <r>  -13.7506    1.0000 </r>
       <r>  -13.7483    1.0000 </r>
       <r>  -13.7150    1.0000 </r>
       <r>  -13.6934    1.0000 </r>
       <r>  -13.6802    1.0000 </r>
       <r>  -13.6564    1.0000 </r>
       <r>  -13.6134    1.0000 </r>
       <r>  -13.6012    1.0000 </r>
       <r>  -13.5971    1.0000 </r>
       <r>  -13.4503    1.0000 </r>
       <r>  -13.4477    1.0000 </r>
       <r>  -13.3854    1.0000 </r>
       <r>  -13.2977    1.0000 </r>
       <r>  -13.2955    1.0000 </r>
       <r>  -13.2873    1.0000 </r>
       <r>  -13.2603    1.0000 </r>
       <r>  -13.2578    1.0000 </r>
       <r>  -13.1181    1.0000 </r>
       <r>  -13.1159    1.0000 </r>
       <r>  -13.0986    1.0000 </r>
       <r>  -13.0742    1.0000 </r>
       <r>  -13.0272    1.0000 </r>
       <r>  -13.0262    1.0000 </r>
       <r>  -13.0014    1.0000 </r>
       <r>  -12.9425    1.0000 </r>
[...]
       <r>   -22.0692    34.1841   106.0149 </r>
       <r>   -21.9518     0.0000   108.0000 </r>
       <r>   -21.8343     0.0000   108.0000 </r>
       <r>   -21.7169     0.0000   108.0000 </r>
       <r>   -21.5994     0.0000   108.0000 </r>
       <r>   -21.4820     0.0000   108.0000 </r>
       <r>   -21.3645     0.0000   108.0000 </r>
       <r>   -21.2471    51.0865   114.0000 </r>
       <r>   -21.1296    51.0865   120.0000 </r>
       <r>   -21.0122     0.0000   120.0000 </r>
       <r>   -20.8947     0.0000   120.0000 </r>
       <r>   -20.7773    51.0861   126.0000 </r>
       <r>   -20.6598    51.0865   132.0000 </r>
       <r>   -20.5424     0.0000   132.0000 </r>
       <r>   -20.4249     0.0000   132.0000 </r>
       <r>   -20.3075     0.0000   132.0000 </r>
       <r>   -20.1900     0.0000   132.0000 </r>
       <r>   -20.0726     0.0000   132.0000 </r>
       <r>   -19.9552     0.0000   132.0000 </r>
       <r>   -19.8377     0.0000   132.0000 </r>
       <r>   -19.7203     0.0000   132.0000 </r>
       <r>   -19.6028     0.0000   132.0000 </r>
       <r>   -19.4854     0.0000   132.0000 </r>
       <r>   -19.3679     0.0000   132.0000 </r>
       <r>   -19.2505     0.0000   132.0000 </r>
       <r>   -19.1330     0.0000   132.0000 </r>
       <r>   -19.0156     0.0000   132.0000 </r>
       <r>   -18.8981    17.0288   138.0000 </r>
       <r>   -18.7807    30.6519   144.0000 </r>
       <r>   -18.6632     0.0000   144.0000 </r>
       <r>   -18.5458     0.0000   144.0000 </r>
       <r>   -18.4283     0.0000   144.0000 </r>
       <r>   -18.3109    33.8278   147.9730 </r>
       <r>   -18.1934    34.1627   152.0123 </r>
       <r>   -18.0760    59.3116   159.9994 </r>
       <r>   -17.9585    51.0865   166.0000 </r>
       <r>   -17.8411    12.7338   167.4956 </r>
       <r>   -17.7236     0.0000   168.0000 </r>
       <r>   -17.6062     0.0000   168.0000 </r>
       <r>   -17.4887    18.4467   170.1665 </r>
       <r>   -17.3713    22.6658   173.2954 </r>
       <r>   -17.2539     0.0000   174.0000 </r>
       <r>   -17.1364     9.8545   175.1574 </r>
       <r>   -17.0190     2.9965   175.6853 </r>
       <r>   -16.9015     0.0000   176.0000 </r>
       <r>   -16.7841    21.1372   178.4825 </r>
       <r>   -16.6666    11.0685   180.0000 </r>
       <r>   -16.5492     0.0000   180.0000 </r>
       <r>   -16.4317     0.0000   180.0000 </r>
       <r>   -16.3143     0.0000   180.0000 </r>
       <r>   -16.1968    34.0576   184.0000 </r>
       <r>   -16.0794     0.0000   184.0000 </r>
       <r>   -15.9619     9.7639   185.1467 </r>
       <r>   -15.8445     3.4769   185.8084 </r>
       <r>   -15.7270     2.5698   188.3018 </r>
       <r>   -15.6096     3.1119   188.8322 </r>
       <r>   -15.4921     7.9469   190.0000 </r>
       <r>   -15.3747    29.0277   193.9092 </r>
       <r>   -15.2572    10.4005   197.2215 </r>
       <r>   -15.1398    51.0865   204.0000 </r>
       <r>   -15.0223     0.0063   204.0007 </r>
       <r>   -14.9049    22.5222   208.4785 </r>
       <r>   -14.7874     0.0000   210.0000 </r>
       <r>   -14.6700    27.1001   213.1828 </r>
       <r>   -14.5525     0.0000   216.0000 </r>
       <r>   -14.4351    47.8962   221.6253 </r>
       <r>   -14.3177    68.9594   230.0991 </r>
       <r>   -14.2002    15.9423   234.6057 </r>
       <r>   -14.0828     5.9601   236.0000 </r>
       <r>   -13.9653    34.7998   240.0872 </r>
       <r>   -13.8479    35.4158   244.8595 </r>
       <r>   -13.7304    51.1125   252.0031 </r>
       <r>   -13.6130    46.7779   261.4940 </r>
       <r>   -13.4955     0.0000   266.0000 </r>
       <r>   -13.3781    48.3904   271.6833 </r>
       <r>   -13.2606    69.0184   280.1061 </r>
       <r>   -13.1432     0.0079   282.0009 </r>
       <r>   -13.0257    52.4001   292.1543 </r>
       <r>   -12.9083    51.3611   302.0323 </r>
       <r>   -12.7908    46.5685   311.4694 </r>
       <r>   -12.6734    51.0888   320.0003 </r>
       <r>   -12.5559    41.5066   325.7749 </r>
       <r>   -12.4385    24.2526   331.1818 </r>
       <r>   -12.3210    29.2297   336.7996 </r>
       <r>   -12.2036     0.0014   338.0002 </r>
       <r>   -12.0861     8.3354   339.9456 </r>
       <r>   -11.9687    15.0421   344.0000 </r>
       <r>   -11.8512    48.6646   349.7156 </r>
       <r>   -11.7338    39.7312   355.9997 </r>
       <r>   -11.6164    18.7425   358.2013 </r>
       <r>   -11.4989    22.3910   362.2298 </r>
       <r>   -11.3815     0.0000   364.0000 </r>
       <r>   -11.2640     0.6979   364.0820 </r>
       <r>   -11.1466    20.2368   367.2434 </r>
       <r>   -11.0291    17.0288   370.0000 </r>
       <r>   -10.9117    34.0576   374.0000 </r>
       <r>   -10.7942    47.1807   379.5413 </r>
       <r>   -10.6768     0.0000   380.0000 </r>
       <r>   -10.5593    40.3552   384.7396 </r>
       <r>   -10.4419    37.3161   390.3827 </r>
       <r>   -10.3244    52.7541   402.1959 </r>
       <r>   -10.2070     0.0000   404.0000 </r>
       <r>   -10.0895     0.0000   404.0000 </r>
       <r>    -9.9721     0.0000   404.0000 </r>
       <r>    -9.8546    34.0576   408.0000 </r>
       <r>    -9.7372    17.0285   410.0000 </r>
       <r>    -9.6197    34.3351   414.0326 </r>
       <r>    -9.5023    22.7794   417.9754 </r>
       <r>    -9.3848    59.5750   426.5303 </r>
       <r>    -9.2674     0.0005   428.0001 </r>
       <r>    -9.1499    18.0143   430.8491 </r>
       <r>    -9.0325     5.1086   432.0000 </r>
       <r>    -8.9150    34.0282   435.9965 </r>
       <r>    -8.7976     0.0000   436.0000 </r>
       <r>    -8.6802    34.0576   440.0000 </r>
       <r>    -8.5627    51.0862   446.0000 </r>
       <r>    -8.4453     0.0000   446.0000 </r>
       <r>    -8.3278    26.7020   449.1361 </r>
       <r>    -8.2104    53.5994   458.2951 </r>
       <r>    -8.0929   102.1636   475.9989 </r>
       <r>    -7.9755     0.0000   482.0000 </r>
       <r>    -7.8580    51.0721   487.9983 </r>
       <r>    -7.7406    51.0865   494.0000 </r>
       <r>    -7.6231    78.2428   503.1895 </r>
       <r>    -7.5057    45.7708   509.3757 </r>
       <r>    -7.3882    17.0288   512.0000 </r>
       <r>    -7.2708    94.8005   523.1341 </r>
       <r>    -7.1533    53.8053   530.3193 </r>
       <r>    -7.0359    85.2571   542.0133 </r>
       <r>    -6.9184    51.1657   550.0093 </r>
       <r>    -6.8010    65.5168   561.6948 </r>
       <r>    -6.6835    51.0865   572.0000 </r>
       <r>    -6.5661    34.0703   576.0015 </r>
       <r>    -6.4486    34.0576   582.0000 </r>
       <r>    -6.3312    51.0865   588.0000 </r>
       <r>    -6.2137     0.0000   588.0000 </r>
       <r>    -6.0963     0.0000   588.0000 </r>
       <r>    -5.9789     0.0000   588.0000 </r>
       <r>    -5.8614     0.0000   588.0000 </r>
       <r>    -5.7440     0.0000   588.0000 </r>
       <r>    -5.6265     0.0000   588.0000 </r>
       <r>    -5.5091     0.0000   588.0000 </r>
       <r>    -5.3916     0.0000   588.0000 </r>
       <r>    -5.2742     0.0000   588.0000 </r>
       <r>    -5.1567     0.0000   588.0000 </r>
       <r>    -5.0393     0.0000   588.0000 </r>
       <r>    -4.9218     0.0000   588.0000 </r>
       <r>    -4.8044     0.0000   588.0000 </r>
       <r>    -4.6869     0.0000   588.0000 </r>
       <r>    -4.5695     0.0000   588.0000 </r>
       <r>    -4.4520     0.0000   588.0000 </r>
       <r>    -4.3346     0.0000   588.0000 </r>
       <r>    -4.2171    41.4949   592.8735 </r>
       <r>    -4.0997    14.6932   599.7257 </r>
       <r>    -3.9822     0.0000   600.0000 </r>
       <r>    -3.8648    38.2318   604.4902 </r>
       <r>    -3.7473    11.6364   612.0000 </r>
       <r>    -3.6299     0.0000   612.0000 </r>
       <r>    -3.5124    51.0865   618.0000 </r>
       <r>    -3.3950    11.7892   619.3846 </r>
       <r>    -3.2775    17.0288   624.0000 </r>
       <r>    -3.1601     0.0000   624.0000 </r>
       <r>    -3.0427     0.0054   624.0006 </r>
       <r>    -2.9252     0.0000   628.0000 </r>
       <r>    -2.8078    36.4860   632.2852 </r>
       <r>    -2.6903     9.6497   634.0000 </r>
       <r>    -2.5729     0.0000   634.0000 </r>
       <r>    -2.4554     0.4277   634.0502 </r>
       <r>    -2.3380     0.0000   636.0000 </r>
       <r>    -2.2205     0.0000   636.0000 </r>
       <r>    -2.1031    86.4043   646.1480 </r>
       <r>    -1.9856     0.0000   648.0000 </r>
       <r>    -1.8682    37.9671   652.4592 </r>
       <r>    -1.7507     0.0000   654.0000 </r>
       <r>    -1.6333     0.0000   654.0000 </r>
       <r>    -1.5158    18.1839   656.1357 </r>
       <r>    -1.3984     0.0000   658.0000 </r>
       <r>    -1.2809    17.0287   660.0000 </r>
       <r>    -1.1635    28.8431   663.3876 </r>
       <r>    -1.0460     0.0000   664.0000 </r>
       <r>    -0.9286     0.0000   664.0000 </r>
       <r>    -0.8111    34.0576   668.0000 </r>
       <r>    -0.6937    17.0288   670.0000 </r>
       <r>    -0.5762    17.0192   673.9989 </r>
       <r>    -0.4588     1.5522   674.1823 </r>
       <r>    -0.3413     0.0000   680.0000 </r>
       <r>    -0.2239    65.8343   687.7321 </r>
       <r>    -0.1065     7.5769   690.8899 </r>
       <r>     0.0110    68.0124   699.9879 </r>
       <r>     0.1284    14.0749   701.6531 </r>
       <r>     0.2459    36.0476   706.2337 </r>
       <r>     0.3633    75.0070   719.9761 </r>
       <r>     0.4808    37.3625   726.0548 </r>
       <r>     0.5982    32.4998   733.0837 </r>
       <r>     0.7157     6.5277   736.0000 </r>
       <r>     0.8331     0.0000   736.0000 </r>
       <r>     0.9506     0.0000   736.0000 </r>
       <r>     1.0680     0.0000   736.0000 </r>
       <r>     1.1855     0.0000   736.0000 </r>
       <r>     1.3029     0.0000   736.0000 </r>
       <r>     1.4204     0.0000   736.0000 </r>
       <r>     1.5378     0.0000   736.0000 </r>
       <r>     1.6553     0.0000   736.0000 </r>
       <r>     1.7727     0.0000   736.0000 </r>
       <r>     1.8902     0.0000   736.0000 </r>
       <r>     2.0076     0.0000   736.0000 </r>
       <r>     2.1251     0.0000   736.0000 </r>
       <r>     2.2425     0.0000   736.0000 </r>
      </set>
     </set>
    </array>
   </total>
  </dos>
 </calculation>
 <structure name="finalpos" >
  <crystal>
   <varray name="basis" >
    <v>      33.94605484      -0.00191934       0.00000000 </v>
    <v>     -16.97477648      29.44610463       0.00000000 </v>
    <v>       0.00000000       0.00000000      20.00000000 </v>
   </varray>
   <i name="volume">  19990.93004641 </i>
   <varray name="rec_basis" >
    <v>       0.02945946       0.01698248       0.00000000 </v>
    <v>       0.00000192       0.03396146       0.00000000 </v>
    <v>       0.00000000       0.00000000       0.05000000 </v>
   </varray>
  </crystal>
  <varray name="positions" >
   <v>       0.91620372       0.19365892       0.35797774 </v>
   <v>       0.84222290       0.14786110       0.34671601 </v>
   <v>       0.80163270       0.73822937       0.35511337 </v>
   <v>       0.84771477       0.71022587       0.34562877 </v>
   <v>       0.84811003       0.44099282       0.31045567 </v>
   <v>       0.84923956       0.50271952       0.34653128 </v>
   <v>       0.25620020       0.07945756       0.35625241 </v>
   <v>       0.28420408       0.15341300       0.34609546 </v>
   <v>       0.55512355       0.42039581       0.30911190 </v>
   <v>       0.49177610       0.36223912       0.34649239 </v>
   <v>       0.57175665       0.14541695       0.31241363 </v>
   <v>       0.63209299       0.14405775       0.34948955 </v>
   <v>       0.82230918       0.12007370       0.62299849 </v>
   <v>       0.80989526       0.04993809       0.62561426 </v>
   <v>       0.87210112       0.71839221       0.62330208 </v>
   <v>       0.94256172       0.77561780       0.62662649 </v>
   <v>       0.82717556       0.48599744       0.63794084 </v>
   <v>       0.75991609       0.45992787       0.59043856 </v>
   <v>       0.27592544       0.17181596       0.62288904 </v>
   <v>       0.21764061       0.18346798       0.62598695 </v>
   <v>       0.53601123       0.31612526       0.59011472 </v>
   <v>       0.50914444       0.35655271       0.63776531 </v>
   <v>       0.67801561       0.23465677       0.59243174 </v>
   <v>       0.63694391       0.16762028       0.64030495 </v>
   <v>       0.81287416       0.20946505       0.47828267 </v>
   <v>       0.80753988       0.27267108       0.47649595 </v>
   <v>       0.90567357       0.08467813       0.47469039 </v>
   <v>       0.90707981       0.11513691       0.42625412 </v>
   <v>       0.87950945       0.13432067       0.43301397 </v>
   <v>       0.93480897       0.06452526       0.46740410 </v>
   <v>       0.90938450       0.83659630       0.47368787 </v>
   <v>       0.87942661       0.80756435       0.42477135 </v>
   <v>       0.86021168       0.76087269       0.43166677 </v>
   <v>       0.92962307       0.88581913       0.46637045 </v>
   <v>       0.82045430       0.46672448       0.47207170 </v>
   <v>       0.83330678       0.44514983       0.42339314 </v>
   <v>       0.83563954       0.40629467       0.43602758 </v>
   <v>       0.80677938       0.50050607       0.45543941 </v>
   <v>       0.78501190       0.61921866       0.47653223 </v>
   <v>       0.72175176       0.55075135       0.47511463 </v>
   <v>       0.37517131       0.18179223       0.47745314 </v>
   <v>       0.44348463       0.18643464       0.47586495 </v>
   <v>       0.15750006       0.08877743       0.47396897 </v>
   <v>       0.18668228       0.08786158       0.42526638 </v>
   <v>       0.23340467       0.11556308       0.43214436 </v>
   <v>       0.10824526       0.05947464       0.46678083 </v>
   <v>       0.52826143       0.36921090       0.47183974 </v>
   <v>       0.54978917       0.40341225       0.42290679 </v>
   <v>       0.58843172       0.44478081       0.43536913 </v>
   <v>       0.49440978       0.32179461       0.45545823 </v>
   <v>       0.62465762       0.17369538       0.47423842 </v>
   <v>       0.59025024       0.16041975       0.42541211 </v>
   <v>       0.54888220       0.15785649       0.43760852 </v>
   <v>       0.67218508       0.18753927       0.45764733 </v>
   <v>       0.96222658       0.01797381       0.50292912 </v>
   <v>       0.97591211       0.95959202       0.50256828 </v>
   <v>       0.85165599       0.12678076       0.48913011 </v>
   <v>       0.85168113       0.09623422       0.53692769 </v>
   <v>       0.87683680       0.07457021       0.53011083 </v>
   <v>       0.82461464       0.14937970       0.49707454 </v>
   <v>       0.86720229       0.74063166       0.48834771 </v>
   <v>       0.89717628       0.77119194       0.53666891 </v>
   <v>       0.91890792       0.81794249       0.52975286 </v>
   <v>       0.84464122       0.69107997       0.49646766 </v>
   <v>       0.82562051       0.38731728       0.50041509 </v>
   <v>       0.81664285       0.40990312       0.55155738 </v>
   <v>       0.81404702       0.44852592       0.53677614 </v>
   <v>       0.81831171       0.34159824       0.51290562 </v>
   <v>       0.79077801       0.55612034       0.48327757 </v>
   <v>       0.03431546       0.03155170       0.50311601 </v>
   <v>       0.74396943       0.20379149       0.48524878 </v>
   <v>       0.43872759       0.25033805       0.48395168 </v>
   <v>       0.25359468       0.14309866       0.48856949 </v>
   <v>       0.22285286       0.14259597       0.53658484 </v>
   <v>       0.17605506       0.11728972       0.52968707 </v>
   <v>       0.30324341       0.17013680       0.49666043 </v>
   <v>       0.60720136       0.45418386       0.49990379 </v>
   <v>       0.58477534       0.42272852       0.55120577 </v>
   <v>       0.54645900       0.38124572       0.53651069 </v>
   <v>       0.65283189       0.49284531       0.51222861 </v>
   <v>       0.53971513       0.16804449       0.50175501 </v>
   <v>       0.57123140       0.17737340       0.55312846 </v>
   <v>       0.61267275       0.18023516       0.53873658 </v>
   <v>       0.50121958       0.17539834       0.51348487 </v>
   <v>       0.83506380       0.25501287       0.47420635 </v>
   <v>       0.84068860       0.18988576       0.47443039 </v>
   <v>       0.82629439       0.31934967       0.46855094 </v>
   <v>       0.80456067       0.66649466       0.47234104 </v>
   <v>       0.87909781       0.16150309       0.37510236 </v>
   <v>       0.83366601       0.73332610       0.37330141 </v>
   <v>       0.84433660       0.46426993       0.35466295 </v>
   <v>       0.73940154       0.59585493       0.47276637 </v>
   <v>       0.74537234       0.52868751       0.47972762 </v>
   <v>       0.67498895       0.52278941       0.46751279 </v>
   <v>       0.39828459       0.15928957       0.47352748 </v>
   <v>       0.32776076       0.15430251       0.47334711 </v>
   <v>       0.47116569       0.16726915       0.46871247 </v>
   <v>       0.26105086       0.11639833       0.37399813 </v>
   <v>       0.53093396       0.39477685       0.35402327 </v>
   <v>       0.59858774       0.14918124       0.35699336 </v>
   <v>       0.94448659       0.97263510       0.50245377 </v>
   <v>       0.96056592       0.91333273       0.50644639 </v>
   <v>       0.93123739       0.03330592       0.50700292 </v>
   <v>       0.81262580       0.60151808       0.48199872 </v>
   <v>       0.81601202       0.53439761       0.49323290 </v>
   <v>       0.82566903       0.08796568       0.60004910 </v>
   <v>       0.90467288       0.75354257       0.60045171 </v>
   <v>       0.79931162       0.46704778       0.59265308 </v>
   <v>       0.00667355       0.04930385       0.50351263 </v>
   <v>       0.02132260       0.98715505       0.50297054 </v>
   <v>       0.08059099       0.06256950       0.50702741 </v>
   <v>       0.76188075       0.24913290       0.48148805 </v>
   <v>       0.76755692       0.18194893       0.48382989 </v>
   <v>       0.69706092       0.17863677       0.49557051 </v>
   <v>       0.46591491       0.23209535       0.48022970 </v>
   <v>       0.39328091       0.22709267       0.48302213 </v>
   <v>       0.46078107       0.29725138       0.49377557 </v>
   <v>       0.24028646       0.16820664       0.60005896 </v>
   <v>       0.52833068       0.34800291       0.59239901 </v>
   <v>       0.64584565       0.19528145       0.59476139 </v>
   <v>       0.92914835       0.12363586       0.38262357 </v>
   <v>       0.95989518       0.07765630       0.42638125 </v>
   <v>       0.87137296       0.82110994       0.38067693 </v>
   <v>       0.91681227       0.89784026       0.42501325 </v>
   <v>       0.84382039       0.38992536       0.39583926 </v>
   <v>       0.78434469       0.49220265       0.41167103 </v>
   <v>       0.17324659       0.06606394       0.38137107 </v>
   <v>       0.09633532       0.03473253       0.42534170 </v>
   <v>       0.60485007       0.46911827       0.39497456 </v>
   <v>       0.50228513       0.30765244       0.41130000 </v>
   <v>       0.52436586       0.14941056       0.39727375 </v>
   <v>       0.68611875       0.20972283       0.41362090 </v>
   <v>       0.87521336       0.05092387       0.56825406 </v>
   <v>       0.94213552       0.83999316       0.56827249 </v>
   <v>       0.86292091       0.67655128       0.52250812 </v>
   <v>       0.80947522       0.39626273       0.60229199 </v>
   <v>       0.79126399       0.13075291       0.52156290 </v>
   <v>       0.80235706       0.32619191       0.56121573 </v>
   <v>       0.15390620       0.11853640       0.56801297 </v>
   <v>       0.31782885       0.20315874       0.52198206 </v>
   <v>       0.59834192       0.42949209       0.60199491 </v>
   <v>       0.66831385       0.49266630       0.56066460 </v>
   <v>       0.56455006       0.18463707       0.60369387 </v>
   <v>       0.50162833       0.19166775       0.56142782 </v>
  </varray>
 </structure>
</modeling>
