<?xml version="1.0" encoding="ISO-8859-1"?>
<modeling>
 <generator>
  <i name="program" type="string">vasp </i>
  <i name="version" type="string">5.4.4.18Apr17-6-g9f103f2a35  </i>
  <i name="subversion" type="string">(build Jun 07 2020 16:50:00) complex            parallel </i>
  <i name="platform" type="string">LinuxIFC </i>
  <i name="date" type="string">2023 02 14 </i>
  <i name="time" type="string">16:11:46 </i>
 </generator>
 <incar>
  <i type="string" name="SYSTEM">Simulation for cell shape cell volume r</i>
  <i type="int" name="ISTART">     1</i>
  <i type="string" name="PREC">high</i>
  <i type="string" name="ALGO">48</i>
  <i type="int" name="ICHARG">    11</i>
  <i type="int" name="NELM">   200</i>
  <i type="int" name="IBRION">    -1</i>
  <i name="EDIFF">      0.00001000</i>
  <i name="EDIFFG">     -0.01000000</i>
  <i type="int" name="NSW">     0</i>
  <i type="int" name="ISIF">     2</i>
  <i name="ENCUT">    500.00000000</i>
  <i name="POTIM">      0.30000000</i>
  <i type="string" name="LREAL">A</i>
  <i type="int" name="ISMEAR">     0</i>
  <i name="SIGMA">      0.01000000</i>
  <i type="int" name="NWRITE">     0</i>
  <i type="logical" name="LWAVE"> F  </i>
  <i type="logical" name="LCHARG"> F  </i>
  <v type="int" name="KPOINT_BSE">    -1     0     0     0</v>
  <i type="int" name="NELM">   200</i>
  <i type="string" name="GGA">PE</i>
 </incar>
 <structure name="primitive_cell" >
  <crystal>
   <varray name="basis" >
    <v>      34.05469579      -0.06204851       0.00000000 </v>
    <v>     -17.07042216      29.57445060       0.00000000 </v>
    <v>       0.00000000       0.00000000      20.00000000 </v>
   </varray>
   <i name="volume">  20121.79447683 </i>
   <varray name="rec_basis" >
    <v>       0.02939544       0.01696710       0.00000000 </v>
    <v>       0.00006167       0.03384857       0.00000000 </v>
    <v>       0.00000000       0.00000000       0.05000000 </v>
   </varray>
  </crystal>
  <varray name="positions" >
   <v>      -0.03369354       0.08662900       0.47173234 </v>
   <v>      -0.00546976       0.09782367       0.43644931 </v>
   <v>      -0.05460152       0.11047520       0.47238101 </v>
   <v>      -0.04610972       0.04781723      -0.48807088 </v>
   <v>      -0.09025432       0.09756440      -0.48581636 </v>
   <v>      -0.08269367       0.03442533      -0.44506077 </v>
   <v>      -0.02107638       0.02293993      -0.49212949 </v>
   <v>      -0.10558539       0.05918070      -0.44291142 </v>
   <v>       0.04507227       0.08326672      -0.49470747 </v>
   <v>       0.02645076       0.04633133      -0.49558686 </v>
   <v>      -0.09347063       0.00544447      -0.41193144 </v>
   <v>      -0.11383753       0.12313599      -0.48506216 </v>
   <v>      -0.04437445      -0.02452356      -0.49204786 </v>
   <v>      -0.08140204      -0.04308591      -0.49090124 </v>
   <v>      -0.09950359       0.15928199       0.47407560 </v>
   <v>      -0.14278491       0.04716368      -0.39824580 </v>
   <v>       0.05065155       0.02307730      -0.49868876 </v>
   <v>      -0.15217872       0.10885452      -0.44169852 </v>
   <v>      -0.02100450      -0.04857446      -0.49590368 </v>
   <v>      -0.16508219       0.07139368      -0.39763748 </v>
   <v>      -0.15530607       0.01108046      -0.35654642 </v>
   <v>       0.10512386       0.09482507      -0.41919533 </v>
   <v>       0.02656084      -0.02441476       0.49993461 </v>
   <v>       0.10074377       0.04850585      -0.49637629 </v>
   <v>      -0.12208076       0.18147825       0.47329717 </v>
   <v>       0.12365243       0.08478697      -0.45294779 </v>
   <v>      -0.18038086       0.00808608      -0.32897989 </v>
   <v>      -0.10972083       0.21002103       0.43853291 </v>
   <v>      -0.17587510       0.13283131      -0.44495225 </v>
   <v>      -0.04634545      -0.09851581      -0.49315888 </v>
   <v>      -0.09265754      -0.10320336      -0.41554333 </v>
   <v>       0.04514758      -0.04276231       0.49968932 </v>
   <v>      -0.20114200       0.05626844      -0.35349353 </v>
   <v>      -0.16141890       0.16954446      -0.48785934 </v>
   <v>       0.12753808       0.03688461       0.46287669 </v>
   <v>      -0.08264994      -0.12155502      -0.44963952 </v>
   <v>       0.11074987       0.00883399       0.42735449 </v>
   <v>       0.17139391       0.10817845      -0.45084746 </v>
   <v>      -0.20748300       0.08048066      -0.34385256 </v>
   <v>      -0.20605497       0.12280207      -0.41430559 </v>
   <v>       0.17179401       0.15623883      -0.36303691 </v>
   <v>      -0.00683990      -0.10822735       0.42981702 </v>
   <v>      -0.03484963      -0.12510831       0.46548361 </v>
   <v>       0.19599903       0.14479312      -0.40522746 </v>
   <v>       0.17246667       0.05836069       0.46341276 </v>
   <v>       0.19495581       0.09375843      -0.49439334 </v>
   <v>      -0.18654391       0.19409916      -0.49559764 </v>
   <v>       0.19354846       0.18114262      -0.33494620 </v>
   <v>      -0.10616734      -0.16918839      -0.44809742 </v>
   <v>      -0.12618517       0.26051964      -0.49870402 </v>
   <v>      -0.15450458      -0.17018177      -0.36004703 </v>
   <v>      -0.25257939       0.13318104      -0.49376626 </v>
   <v>      -0.05639031      -0.16990695       0.46555379 </v>
   <v>      -0.16312975       0.24151804       0.49762076 </v>
   <v>      -0.23429416       0.17000436      -0.49813118 </v>
   <v>      -0.14295249      -0.19404968      -0.40267953 </v>
   <v>       0.24262402       0.16739444      -0.40397137 </v>
   <v>      -0.09176274      -0.19248337      -0.49210638 </v>
   <v>       0.24428477       0.11785479      -0.49323290 </v>
   <v>      -0.17930069      -0.19209048      -0.33189822 </v>
   <v>       0.26298123       0.20259344      -0.35856963 </v>
   <v>       0.26773646       0.15536559      -0.44836519 </v>
   <v>      -0.18686784       0.26453605       0.48692473 </v>
   <v>       0.26686047       0.10471200       0.46533041 </v>
   <v>      -0.25847179       0.19255101       0.49103847 </v>
   <v>      -0.16566111      -0.24057763      -0.40207775 </v>
   <v>      -0.11586002      -0.24166928      -0.49149297 </v>
   <v>       0.29407918       0.20995961      -0.35012733 </v>
   <v>      -0.23436741       0.23968480       0.48303413 </v>
   <v>      -0.15361217      -0.26541121      -0.44693950 </v>
   <v>      -0.16547130       0.31453418       0.48147880 </v>
   <v>       0.31554615       0.17895638      -0.44993076 </v>
   <v>      -0.20104754      -0.26113581      -0.35681550 </v>
   <v>      -0.10246898      -0.26383609       0.46674650 </v>
   <v>      -0.30882857       0.17004994       0.48897066 </v>
   <v>      -0.16890843       0.31642602       0.37384070 </v>
   <v>      -0.15452997       0.32715974      -0.41155448 </v>
   <v>       0.31179929       0.12730407       0.46597737 </v>
   <v>       0.33535889       0.20812371      -0.41742063 </v>
   <v>      -0.31366530       0.16959996       0.38208466 </v>
   <v>      -0.16189048       0.33532440       0.42047279 </v>
   <v>      -0.15461556       0.34177736      -0.46024343 </v>
   <v>      -0.31749412       0.16417388      -0.40298439 </v>
   <v>      -0.25302398       0.25757132       0.47511466 </v>
   <v>       0.33861022       0.16543907      -0.49284512 </v>
   <v>      -0.33214394       0.16306844       0.42924817 </v>
   <v>      -0.20787088      -0.29191958      -0.34783671 </v>
   <v>      -0.33403868       0.16162343      -0.45101422 </v>
   <v>       0.32857356       0.11580863       0.43084910 </v>
   <v>      -0.17737361      -0.31310286      -0.44946747 </v>
   <v>      -0.12512217      -0.30863186       0.46662596 </v>
   <v>      -0.15188112       0.38072679       0.41894029 </v>
   <v>      -0.14621140       0.38409533      -0.46001908 </v>
   <v>      -0.36603420       0.13278655       0.31090348 </v>
   <v>      -0.20690311      -0.33304374      -0.41752447 </v>
   <v>       0.39445926       0.25627070      -0.49466444 </v>
   <v>      -0.16360780      -0.33572626      -0.49282498 </v>
   <v>      -0.11342888      -0.32505751       0.43120696 </v>
   <v>       0.38867130       0.19012582      -0.49583254 </v>
   <v>      -0.37820314       0.15162573       0.42981743 </v>
   <v>      -0.15110493       0.38174617       0.29895001 </v>
   <v>      -0.37656054       0.15291027      -0.44870314 </v>
   <v>      -0.14699073       0.40321861       0.48116939 </v>
   <v>       0.41290723       0.23777755      -0.49482630 </v>
   <v>      -0.15018923       0.40292624       0.35739302 </v>
   <v>      -0.38746949       0.14363980       0.30723718 </v>
   <v>      -0.39816820       0.15024459       0.49340675 </v>
   <v>      -0.15068465       0.40090358       0.26228334 </v>
   <v>      -0.40364342       0.14544701       0.37002754 </v>
   <v>       0.39397138       0.12952247      -0.49957715 </v>
   <v>       0.41257986       0.16645584      -0.49904566 </v>
   <v>      -0.25477137      -0.39158111      -0.49402102 </v>
   <v>      -0.18838056      -0.38555536      -0.49820009 </v>
   <v>      -0.14683574       0.44589511       0.48151430 </v>
   <v>      -0.14993896       0.44332534       0.35785177 </v>
   <v>      -0.23616456      -0.40983473      -0.49772934 </v>
   <v>       0.46032655       0.26165301      -0.49551094 </v>
   <v>      -0.12757348      -0.39069536       0.49634026 </v>
   <v>      -0.44087033       0.15020306       0.49518500 </v>
   <v>      -0.16460109      -0.40921453       0.49542581 </v>
   <v>      -0.44440670       0.14472027       0.37159657 </v>
   <v>      -0.14604805       0.46555401      -0.45955225 </v>
   <v>       0.48286365       0.32032566       0.39797465 </v>
   <v>      -0.15184645       0.46366134       0.41927373 </v>
   <v>       0.46003518       0.18991627      -0.49954616 </v>
   <v>       0.48884470       0.31185238      -0.49620179 </v>
   <v>      -0.15185073       0.46043052       0.29591459 </v>
   <v>      -0.45069671       0.13902248       0.27689630 </v>
   <v>       0.48342697       0.23733097      -0.49687506 </v>
   <v>       0.49950141       0.33645339       0.44481115 </v>
   <v>      -0.45725264       0.15417254      -0.44518182 </v>
   <v>      -0.46213742       0.15016072       0.43365116 </v>
   <v>      -0.49791664       0.31760513      -0.38920590 </v>
   <v>      -0.46783456       0.14138134       0.31436526 </v>
   <v>      -0.26003825      -0.45695629       0.49618368 </v>
   <v>      -0.48847392       0.33544266      -0.43718325 </v>
   <v>      -0.13901385       0.49305438       0.29880881 </v>
   <v>      -0.18804132      -0.45634927       0.48920782 </v>
   <v>       0.48857113       0.16831171       0.49673378 </v>
   <v>      -0.15460427       0.49936576      -0.45887830 </v>
   <v>       0.48715420       0.16268485       0.38913906 </v>
   <v>      -0.47493155       0.38984564       0.32735834 </v>
   <v>      -0.16262679       0.49855321       0.42203061 </v>
   <v>      -0.47953610       0.25573551      -0.49742539 </v>
   <v>      -0.46490868       0.38197547       0.44444245 </v>
   <v>      -0.31037916      -0.48545049       0.49722789 </v>
   <v>      -0.31930698      -0.48479903       0.39120455 </v>
   <v>      -0.23562086      -0.47976716       0.48963482 </v>
   <v>       0.49728534       0.16695111      -0.39564868 </v>
   <v>      -0.49108183       0.16279862      -0.44477900 </v>
   <v>      -0.49805504       0.15953696       0.43575146 </v>
   <v>      -0.45506426       0.37807550      -0.43593070 </v>
   <v>      -0.15439291      -0.48618524      -0.40993981 </v>
   <v>      -0.33591091      -0.49915331       0.43898001 </v>
   <v>      -0.44965110       0.40780393       0.38392046 </v>
   <v>      -0.31477801      -0.49356146      -0.39460590 </v>
   <v>      -0.45926351       0.41097482       0.29071425 </v>
   <v>      -0.16601869      -0.48437522       0.48332379 </v>
   <v>      -0.17164104      -0.48998547       0.37657349 </v>
   <v>      -0.44133797       0.40087925      -0.49439541 </v>
   <v>      -0.33311904       0.49457633      -0.44198827 </v>
   <v>      -0.37428850      -0.49894173       0.32622452 </v>
   <v>      -0.25404972       0.48341473       0.48529998 </v>
   <v>      -0.38170052       0.46552272       0.44105712 </v>
   <v>      -0.40929051       0.44830690       0.38259030 </v>
   <v>      -0.39563889       0.46888947       0.32061131 </v>
   <v>      -0.37538235       0.46039856      -0.43860489 </v>
   <v>      -0.39907277       0.44395038      -0.49582418 </v>
  </varray>
 </structure>
 <varray name="primitive_index" >
  <v type="int" >        1 </v>
  <v type="int" >      109 </v>
  <v type="int" >       97 </v>
  <v type="int" >       37 </v>
  <v type="int" >       67 </v>
  <v type="int" >       68 </v>
  <v type="int" >       34 </v>
  <v type="int" >       69 </v>
  <v type="int" >      120 </v>
  <v type="int" >       41 </v>
  <v type="int" >      140 </v>
  <v type="int" >       64 </v>
  <v type="int" >       35 </v>
  <v type="int" >      121 </v>
  <v type="int" >       99 </v>
  <v type="int" >       70 </v>
  <v type="int" >       40 </v>
  <v type="int" >       65 </v>
  <v type="int" >       36 </v>
  <v type="int" >       71 </v>
  <v type="int" >      163 </v>
  <v type="int" >      148 </v>
  <v type="int" >       39 </v>
  <v type="int" >       86 </v>
  <v type="int" >       10 </v>
  <v type="int" >       87 </v>
  <v type="int" >      141 </v>
  <v type="int" >      115 </v>
  <v type="int" >       66 </v>
  <v type="int" >       38 </v>
  <v type="int" >      144 </v>
  <v type="int" >      119 </v>
  <v type="int" >      164 </v>
  <v type="int" >       63 </v>
  <v type="int" >       13 </v>
  <v type="int" >       77 </v>
  <v type="int" >      118 </v>
  <v type="int" >       88 </v>
  <v type="int" >      142 </v>
  <v type="int" >      139 </v>
  <v type="int" >      167 </v>
  <v type="int" >      110 </v>
  <v type="int" >        2 </v>
  <v type="int" >       89 </v>
  <v type="int" >      102 </v>
  <v type="int" >       85 </v>
  <v type="int" >       43 </v>
  <v type="int" >      149 </v>
  <v type="int" >       78 </v>
  <v type="int" >      111 </v>
  <v type="int" >      165 </v>
  <v type="int" >      122 </v>
  <v type="int" >       98 </v>
  <v type="int" >        6 </v>
  <v type="int" >       42 </v>
  <v type="int" >       79 </v>
  <v type="int" >       90 </v>
  <v type="int" >       76 </v>
  <v type="int" >       82 </v>
  <v type="int" >      145 </v>
  <v type="int" >      168 </v>
  <v type="int" >       83 </v>
  <v type="int" >        3 </v>
  <v type="int" >      101 </v>
  <v type="int" >        5 </v>
  <v type="int" >       80 </v>
  <v type="int" >       73 </v>
  <v type="int" >      150 </v>
  <v type="int" >        4 </v>
  <v type="int" >       74 </v>
  <v type="int" >       14 </v>
  <v type="int" >       84 </v>
  <v type="int" >      166 </v>
  <v type="int" >      100 </v>
  <v type="int" >       31 </v>
  <v type="int" >      127 </v>
  <v type="int" >      151 </v>
  <v type="int" >       12 </v>
  <v type="int" >      147 </v>
  <v type="int" >      136 </v>
  <v type="int" >       17 </v>
  <v type="int" >       91 </v>
  <v type="int" >      156 </v>
  <v type="int" >      112 </v>
  <v type="int" >       81 </v>
  <v type="int" >       32 </v>
  <v type="int" >      146 </v>
  <v type="int" >       96 </v>
  <v type="int" >      117 </v>
  <v type="int" >       75 </v>
  <v type="int" >       11 </v>
  <v type="int" >       16 </v>
  <v type="int" >      103 </v>
  <v type="int" >      137 </v>
  <v type="int" >      143 </v>
  <v type="int" >      124 </v>
  <v type="int" >       72 </v>
  <v type="int" >      116 </v>
  <v type="int" >       51 </v>
  <v type="int" >       33 </v>
  <v type="int" >      158 </v>
  <v type="int" >      108 </v>
  <v type="int" >       15 </v>
  <v type="int" >       50 </v>
  <v type="int" >       54 </v>
  <v type="int" >      161 </v>
  <v type="int" >       30 </v>
  <v type="int" >      130 </v>
  <v type="int" >       61 </v>
  <v type="int" >      125 </v>
  <v type="int" >       52 </v>
  <v type="int" >      123 </v>
  <v type="int" >       45 </v>
  <v type="int" >       18 </v>
  <v type="int" >       53 </v>
  <v type="int" >       46 </v>
  <v type="int" >       49 </v>
  <v type="int" >      113 </v>
  <v type="int" >       27 </v>
  <v type="int" >        9 </v>
  <v type="int" >       62 </v>
  <v type="int" >      104 </v>
  <v type="int" >      132 </v>
  <v type="int" >       21 </v>
  <v type="int" >       47 </v>
  <v type="int" >       58 </v>
  <v type="int" >      157 </v>
  <v type="int" >      138 </v>
  <v type="int" >       48 </v>
  <v type="int" >       24 </v>
  <v type="int" >      107 </v>
  <v type="int" >       28 </v>
  <v type="int" >      154 </v>
  <v type="int" >      162 </v>
  <v type="int" >       44 </v>
  <v type="int" >       94 </v>
  <v type="int" >      129 </v>
  <v type="int" >        8 </v>
  <v type="int" >       26 </v>
  <v type="int" >       92 </v>
  <v type="int" >      135 </v>
  <v type="int" >      159 </v>
  <v type="int" >       20 </v>
  <v type="int" >      126 </v>
  <v type="int" >       25 </v>
  <v type="int" >       55 </v>
  <v type="int" >      131 </v>
  <v type="int" >        7 </v>
  <v type="int" >      155 </v>
  <v type="int" >       95 </v>
  <v type="int" >       29 </v>
  <v type="int" >      106 </v>
  <v type="int" >      152 </v>
  <v type="int" >       23 </v>
  <v type="int" >       59 </v>
  <v type="int" >      153 </v>
  <v type="int" >      133 </v>
  <v type="int" >       19 </v>
  <v type="int" >      128 </v>
  <v type="int" >       57 </v>
  <v type="int" >       93 </v>
  <v type="int" >      134 </v>
  <v type="int" >      114 </v>
  <v type="int" >       22 </v>
  <v type="int" >       60 </v>
  <v type="int" >      160 </v>
  <v type="int" >      105 </v>
  <v type="int" >       56 </v>
 </varray>
 <kpoints>
  <generation param="listgenerated">
   <i name="divisions" type="int">      20 </i>
   <v>       0.00000000       0.00000000       0.00000000 </v>
   <v>       0.50000000       0.00000000       0.00000000 </v>
   <v>       0.33333333       0.33333333       0.00000000 </v>
   <v>       0.00000000       0.00000000       0.00000000 </v>
  </generation>
  <varray name="kpointlist" >
   <v>       0.00000000       0.00000000       0.00000000 </v>
   <v>       0.02631579       0.00000000       0.00000000 </v>
   <v>       0.05263158       0.00000000       0.00000000 </v>
   <v>       0.07894737       0.00000000       0.00000000 </v>
   <v>       0.10526316       0.00000000       0.00000000 </v>
   <v>       0.13157895       0.00000000       0.00000000 </v>
   <v>       0.15789474       0.00000000       0.00000000 </v>
   <v>       0.18421053       0.00000000       0.00000000 </v>
   <v>       0.21052632       0.00000000       0.00000000 </v>
   <v>       0.23684211       0.00000000       0.00000000 </v>
   <v>       0.26315789       0.00000000       0.00000000 </v>
   <v>       0.28947368       0.00000000       0.00000000 </v>
   <v>       0.31578947       0.00000000       0.00000000 </v>
   <v>       0.34210526       0.00000000       0.00000000 </v>
   <v>       0.36842105       0.00000000       0.00000000 </v>
   <v>       0.39473684       0.00000000       0.00000000 </v>
   <v>       0.42105263       0.00000000       0.00000000 </v>
   <v>       0.44736842       0.00000000       0.00000000 </v>
   <v>       0.47368421       0.00000000       0.00000000 </v>
   <v>       0.50000000       0.00000000       0.00000000 </v>
   <v>       0.50000000       0.00000000       0.00000000 </v>
   <v>       0.49122807       0.01754386       0.00000000 </v>
   <v>       0.48245614       0.03508772       0.00000000 </v>
   <v>       0.47368421       0.05263158       0.00000000 </v>
   <v>       0.46491228       0.07017544       0.00000000 </v>
   <v>       0.45614035       0.08771930       0.00000000 </v>
   <v>       0.44736842       0.10526316       0.00000000 </v>
   <v>       0.43859649       0.12280702       0.00000000 </v>
   <v>       0.42982456       0.14035088       0.00000000 </v>
   <v>       0.42105263       0.15789474       0.00000000 </v>
   <v>       0.41228070       0.17543860       0.00000000 </v>
   <v>       0.40350877       0.19298246       0.00000000 </v>
   <v>       0.39473684       0.21052632       0.00000000 </v>
   <v>       0.38596491       0.22807018       0.00000000 </v>
   <v>       0.37719298       0.24561404       0.00000000 </v>
   <v>       0.36842105       0.26315789       0.00000000 </v>
   <v>       0.35964912       0.28070175       0.00000000 </v>
   <v>       0.35087719       0.29824561       0.00000000 </v>
   <v>       0.34210526       0.31578947       0.00000000 </v>
   <v>       0.33333333       0.33333333       0.00000000 </v>
   <v>       0.33333333       0.33333333       0.00000000 </v>
   <v>       0.31578947       0.31578947       0.00000000 </v>
   <v>       0.29824561       0.29824561       0.00000000 </v>
   <v>       0.28070175       0.28070175       0.00000000 </v>
   <v>       0.26315789       0.26315789       0.00000000 </v>
   <v>       0.24561404       0.24561404       0.00000000 </v>
   <v>       0.22807018       0.22807018       0.00000000 </v>
   <v>       0.21052632       0.21052632       0.00000000 </v>
   <v>       0.19298246       0.19298246       0.00000000 </v>
   <v>       0.17543860       0.17543860       0.00000000 </v>
   <v>       0.15789474       0.15789474       0.00000000 </v>
   <v>       0.14035088       0.14035088       0.00000000 </v>
   <v>       0.12280702       0.12280702       0.00000000 </v>
   <v>       0.10526316       0.10526316       0.00000000 </v>
   <v>       0.08771930       0.08771930       0.00000000 </v>
   <v>       0.07017544       0.07017544       0.00000000 </v>
   <v>       0.05263158       0.05263158       0.00000000 </v>
   <v>       0.03508772       0.03508772       0.00000000 </v>
   <v>       0.01754386       0.01754386       0.00000000 </v>
   <v>       0.00000000       0.00000000       0.00000000 </v>
  </varray>
  <varray name="weights" >
   <v>       0.01666667 </v>
   <v>       0.01666667 </v>
   <v>       0.01666667 </v>
   <v>       0.01666667 </v>
   <v>       0.01666667 </v>
   <v>       0.01666667 </v>
   <v>       0.01666667 </v>
   <v>       0.01666667 </v>
   <v>       0.01666667 </v>
   <v>       0.01666667 </v>
   <v>       0.01666667 </v>
   <v>       0.01666667 </v>
   <v>       0.01666667 </v>
   <v>       0.01666667 </v>
   <v>       0.01666667 </v>
   <v>       0.01666667 </v>
   <v>       0.01666667 </v>
   <v>       0.01666667 </v>
   <v>       0.01666667 </v>
   <v>       0.01666667 </v>
   <v>       0.01666667 </v>
   <v>       0.01666667 </v>
   <v>       0.01666667 </v>
   <v>       0.01666667 </v>
   <v>       0.01666667 </v>
   <v>       0.01666667 </v>
   <v>       0.01666667 </v>
   <v>       0.01666667 </v>
   <v>       0.01666667 </v>
   <v>       0.01666667 </v>
   <v>       0.01666667 </v>
   <v>       0.01666667 </v>
   <v>       0.01666667 </v>
   <v>       0.01666667 </v>
   <v>       0.01666667 </v>
   <v>       0.01666667 </v>
   <v>       0.01666667 </v>
   <v>       0.01666667 </v>
   <v>       0.01666667 </v>
   <v>       0.01666667 </v>
   <v>       0.01666667 </v>
   <v>       0.01666667 </v>
   <v>       0.01666667 </v>
   <v>       0.01666667 </v>
   <v>       0.01666667 </v>
   <v>       0.01666667 </v>
   <v>       0.01666667 </v>
   <v>       0.01666667 </v>
   <v>       0.01666667 </v>
   <v>       0.01666667 </v>
   <v>       0.01666667 </v>
   <v>       0.01666667 </v>
   <v>       0.01666667 </v>
   <v>       0.01666667 </v>
   <v>       0.01666667 </v>
   <v>       0.01666667 </v>
   <v>       0.01666667 </v>
   <v>       0.01666667 </v>
   <v>       0.01666667 </v>
   <v>       0.01666667 </v>
  </varray>
 </kpoints>
 <parameters>
  <separator name="general" >
   <i type="string" name="SYSTEM">Simulation for cell shape cell volume r</i>
   <i type="logical" name="LCOMPAT"> F  </i>
  </separator>
  <separator name="electronic" >
   <i type="string" name="PREC">high</i>
   <i name="ENMAX">    500.00000000</i>
   <i name="ENAUG">    644.87300000</i>
   <i name="EDIFF">      0.00001000</i>
   <i type="int" name="IALGO">    38</i>
   <i type="int" name="IWAVPR">    10</i>
   <i type="int" name="NBANDS">   368</i>
   <i name="NELECT">    564.00000000</i>
   <i type="int" name="TURBO">     0</i>
   <i type="int" name="IRESTART">     0</i>
   <i type="int" name="NREBOOT">     0</i>
   <i type="int" name="NMIN">     0</i>
   <i name="EREF">      0.00000000</i>
   <separator name="electronic smearing" >
    <i type="int" name="ISMEAR">     0</i>
    <i name="SIGMA">      0.01000000</i>
    <i name="KSPACING">      0.50000000</i>
    <i type="logical" name="KGAMMA"> T  </i>
   </separator>
   <separator name="electronic projectors" >
    <i type="logical" name="LREAL"> T  </i>
    <v name="ROPT">     -0.00040000     -0.00040000     -0.00040000     -0.00040000</v>
    <i type="int" name="LMAXPAW">  -100</i>
    <i type="int" name="LMAXMIX">     2</i>
    <i type="logical" name="NLSPLINE"> F  </i>
   </separator>
   <separator name="electronic startup" >
    <i type="int" name="ISTART">     1</i>
    <i type="int" name="ICHARG">    11</i>
    <i type="int" name="INIWAV">     1</i>
   </separator>
   <separator name="electronic spin" >
    <i type="int" name="ISPIN">     1</i>
    <i type="logical" name="LNONCOLLINEAR"> F  </i>
    <v name="MAGMOM">      1.00000000      1.00000000      1.00000000      1.00000000      1.00000000      1.00000000      1.00000000      1.00000000      1.00000000      1.00000000      1.00000000      1.00000000      1.00000000      1.00000000      1.00000000      1.00000000      1.00000000      1.00000000      1.00000000      1.00000000
      1.00000000      1.00000000      1.00000000      1.00000000      1.00000000      1.00000000      1.00000000      1.00000000      1.00000000      1.00000000      1.00000000      1.00000000      1.00000000      1.00000000      1.00000000      1.00000000      1.00000000      1.00000000      1.00000000      1.00000000
      1.00000000      1.00000000      1.00000000      1.00000000      1.00000000      1.00000000      1.00000000      1.00000000      1.00000000      1.00000000      1.00000000      1.00000000      1.00000000      1.00000000      1.00000000      1.00000000      1.00000000      1.00000000      1.00000000      1.00000000
      1.00000000      1.00000000      1.00000000      1.00000000      1.00000000      1.00000000      1.00000000      1.00000000      1.00000000      1.00000000      1.00000000      1.00000000      1.00000000      1.00000000      1.00000000      1.00000000      1.00000000      1.00000000      1.00000000      1.00000000
      1.00000000      1.00000000      1.00000000      1.00000000      1.00000000      1.00000000      1.00000000      1.00000000      1.00000000      1.00000000      1.00000000      1.00000000      1.00000000      1.00000000      1.00000000      1.00000000      1.00000000      1.00000000      1.00000000      1.00000000
      1.00000000      1.00000000      1.00000000      1.00000000      1.00000000      1.00000000      1.00000000      1.00000000      1.00000000      1.00000000      1.00000000      1.00000000      1.00000000      1.00000000      1.00000000      1.00000000      1.00000000      1.00000000      1.00000000      1.00000000
      1.00000000      1.00000000      1.00000000      1.00000000      1.00000000      1.00000000      1.00000000      1.00000000      1.00000000      1.00000000      1.00000000      1.00000000      1.00000000      1.00000000      1.00000000      1.00000000      1.00000000      1.00000000      1.00000000      1.00000000
      1.00000000      1.00000000      1.00000000      1.00000000      1.00000000      1.00000000      1.00000000      1.00000000      1.00000000      1.00000000      1.00000000      1.00000000      1.00000000      1.00000000      1.00000000      1.00000000      1.00000000      1.00000000      1.00000000      1.00000000
      1.00000000      1.00000000      1.00000000      1.00000000      1.00000000      1.00000000      1.00000000      1.00000000</v>
    <i name="NUPDOWN">     -1.00000000</i>
    <i type="logical" name="LSORBIT"> F  </i>
    <v name="SAXIS">      0.00000000      0.00000000      1.00000000</v>
    <i type="logical" name="LSPIRAL"> F  </i>
    <v name="QSPIRAL">      0.00000000      0.00000000      0.00000000</v>
    <i type="logical" name="LZEROZ"> F  </i>
   </separator>
   <separator name="electronic exchange-correlation" >
    <i type="logical" name="LASPH"> F  </i>
    <i type="logical" name="LMETAGGA"> F  </i>
   </separator>
   <separator name="electronic convergence" >
    <i type="int" name="NELM">   200</i>
    <i type="int" name="NELMDL">     0</i>
    <i type="int" name="NELMIN">     2</i>
    <i name="ENINI">    500.00000000</i>
    <separator name="electronic convergence detail" >
     <i type="logical" name="LDIAG"> T  </i>
     <i type="logical" name="LSUBROT"> F  </i>
     <i name="WEIMIN">      0.00000000</i>
     <i name="EBREAK">      0.00000001</i>
     <i name="DEPER">      0.30000000</i>
     <i type="int" name="NRMM">     4</i>
     <i name="TIME">      0.40000000</i>
    </separator>
   </separator>
   <separator name="electronic mixer" >
    <i name="AMIX">      0.40000000</i>
    <i name="BMIX">      1.00000000</i>
    <i name="AMIN">      0.10000000</i>
    <i name="AMIX_MAG">      1.60000000</i>
    <i name="BMIX_MAG">      1.00000000</i>
    <separator name="electronic mixer details" >
     <i type="int" name="IMIX">     4</i>
     <i type="logical" name="MIXFIRST"> F  </i>
     <i type="int" name="MAXMIX">   -45</i>
     <i name="WC">    100.00000000</i>
     <i type="int" name="INIMIX">     1</i>
     <i type="int" name="MIXPRE">     1</i>
     <i type="int" name="MREMOVE">     5</i>
    </separator>
   </separator>
   <separator name="electronic dipolcorrection" >
    <i type="logical" name="LDIPOL"> F  </i>
    <i type="logical" name="LMONO"> F  </i>
    <i type="int" name="IDIPOL">     0</i>
    <i name="EPSILON">      1.00000000</i>
    <v name="DIPOL">   -100.00000000   -100.00000000   -100.00000000</v>
    <i name="EFIELD">      0.00000000</i>
   </separator>
  </separator>
  <separator name="grids" >
   <i type="int" name="NGX">   250</i>
   <i type="int" name="NGY">   250</i>
   <i type="int" name="NGZ">   150</i>
   <i type="int" name="NGXF">   378</i>
   <i type="int" name="NGYF">   378</i>
   <i type="int" name="NGZF">   224</i>
   <i type="logical" name="ADDGRID"> F  </i>
  </separator>
  <separator name="ionic" >
   <i type="int" name="NSW">     0</i>
   <i type="int" name="IBRION">    -1</i>
   <i type="int" name="MDALGO">     0</i>
   <i type="int" name="ISIF">     2</i>
   <i name="PSTRESS">      0.00000000</i>
   <i name="EDIFFG">     -0.01000000</i>
   <i type="int" name="NFREE">     0</i>
   <i name="POTIM">      0.30000000</i>
   <i name="SMASS">     -3.00000000</i>
   <i name="SCALEE">      1.00000000</i>
  </separator>
  <separator name="ionic md" >
   <i name="TEBEG">      0.00010000</i>
   <i name="TEEND">      0.00010000</i>
   <i type="int" name="NBLOCK">     1</i>
   <i type="int" name="KBLOCK">     1</i>
   <i type="int" name="NPACO">   256</i>
   <i name="APACO">     16.00000000</i>
  </separator>
  <separator name="symmetry" >
   <i type="int" name="ISYM">     2</i>
   <i name="SYMPREC">      0.00001000</i>
  </separator>
  <separator name="dos" >
   <i type="int" name="LORBIT">     0</i>
   <v name="RWIGS">     -1.00000000     -1.00000000     -1.00000000     -1.00000000</v>
   <i type="int" name="NEDOS">   301</i>
   <i name="EMIN">     10.00000000</i>
   <i name="EMAX">    -10.00000000</i>
   <i name="EFERMI">      0.00000000</i>
  </separator>
  <separator name="writing" >
   <i type="int" name="NWRITE">     0</i>
   <i type="logical" name="LWAVE"> F  </i>
   <i type="logical" name="LDOWNSAMPLE"> F  </i>
   <i type="logical" name="LCHARG"> F  </i>
   <i type="logical" name="LPARD"> F  </i>
   <i type="logical" name="LVTOT"> F  </i>
   <i type="logical" name="LVHAR"> F  </i>
   <i type="logical" name="LELF"> F  </i>
   <i type="logical" name="LOPTICS"> F  </i>
   <v name="STM">      0.00000000      0.00000000      0.00000000      0.00000000      0.00000000      0.00000000      0.00000000</v>
  </separator>
  <separator name="performance" >
   <i type="int" name="NPAR">    16</i>
   <i type="int" name="NSIM">     4</i>
   <i type="int" name="NBLK">    -1</i>
   <i type="logical" name="LPLANE"> T  </i>
   <i type="logical" name="LSCALAPACK"> T  </i>
   <i type="logical" name="LSCAAWARE"> F  </i>
   <i type="logical" name="LSCALU"> F  </i>
   <i type="logical" name="LASYNC"> F  </i>
   <i type="logical" name="LORBITALREAL"> F  </i>
  </separator>
  <separator name="miscellaneous" >
   <i type="int" name="IDIOT">     3</i>
   <i type="int" name="ISPECIAL">     0</i>
   <i type="logical" name="LMUSIC"> F  </i>
   <v name="POMASS">     12.01100000     14.00100000      1.00000000     16.00000000</v>
   <v name="DARWINR">      0.00000000      0.00000000      0.00000000      0.00000000</v>
   <v name="DARWINV">      1.00000000      1.00000000      1.00000000      1.00000000</v>
   <i type="logical" name="LCORR"> T  </i>
  </separator>
  <i type="logical" name="GGA_COMPAT"> T  </i>
  <i type="logical" name="LBERRY"> F  </i>
  <i type="int" name="ICORELEVEL">     0</i>
  <i type="logical" name="LDAU"> F  </i>
  <i type="int" name="I_CONSTRAINED_M">     0</i>
  <separator name="electronic exchange-correlation" >
   <i type="string" name="GGA">PE</i>
   <i type="int" name="VOSKOWN">     0</i>
   <i type="logical" name="LHFCALC"> F  </i>
   <i type="string" name="PRECFOCK"></i>
   <i type="logical" name="LSYMGRAD"> F  </i>
   <i type="logical" name="LHFONE"> F  </i>
   <i type="logical" name="LRHFCALC"> F  </i>
   <i type="logical" name="LTHOMAS"> F  </i>
   <i type="logical" name="LMODELHF"> F  </i>
   <i name="ENCUT4O">     -1.00000000</i>
   <i type="int" name="EXXOEP">     0</i>
   <i type="int" name="FOURORBIT">     0</i>
   <i name="AEXX">      0.00000000</i>
   <i name="HFALPHA">      0.00000000</i>
   <i name="MCALPHA">      0.00000000</i>
   <i name="ALDAX">      1.00000000</i>
   <i name="AGGAX">      1.00000000</i>
   <i name="ALDAC">      1.00000000</i>
   <i name="AGGAC">      1.00000000</i>
   <i type="int" name="NKREDX">     1</i>
   <i type="int" name="NKREDY">     1</i>
   <i type="int" name="NKREDZ">     1</i>
   <i type="logical" name="SHIFTRED"> F  </i>
   <i type="logical" name="ODDONLY"> F  </i>
   <i type="logical" name="EVENONLY"> F  </i>
   <i type="int" name="LMAXFOCK">     0</i>
   <i type="int" name="NMAXFOCKAE">     0</i>
   <i type="logical" name="LFOCKAEDFT"> F  </i>
   <i name="HFSCREEN">      0.00000000</i>
   <i name="HFSCREENC">      0.00000000</i>
   <i type="int" name="NBANDSGWLOW">     0</i>
  </separator>
  <separator name="vdW DFT" >
   <i type="logical" name="LUSE_VDW"> F  </i>
   <i name="Zab_VDW">     -0.84910000</i>
   <i name="PARAM1">      0.12340000</i>
   <i name="PARAM2">      1.00000000</i>
   <i name="PARAM3">      0.00000000</i>
  </separator>
  <separator name="model GW" >
   <i type="int" name="MODEL_GW">     0</i>
   <i name="MODEL_EPS0">     71.86355170</i>
   <i name="MODEL_ALPHA">      1.00000000</i>
  </separator>
  <separator name="linear response parameters" >
   <i type="logical" name="LEPSILON"> F  </i>
   <i type="logical" name="LRPA"> F  </i>
   <i type="logical" name="LNABLA"> F  </i>
   <i type="logical" name="LVEL"> F  </i>
   <i type="int" name="KINTER">     0</i>
   <i name="CSHIFT">      0.10000000</i>
   <i name="OMEGAMAX">     -1.00000000</i>
   <i name="DEG_THRESHOLD">      0.00200000</i>
   <i name="RTIME">     -0.10000000</i>
   <i name="WPLASMAI">      0.00000000</i>
   <v name="DFIELD">      0.00000000      0.00000000      0.00000000</v>
   <v name="WPLASMA">      0.00000000      0.00000000      0.00000000      0.00000000      0.00000000      0.00000000      0.00000000      0.00000000      0.00000000</v>
  </separator>
  <separator name="orbital magnetization" >
   <i type="logical" name="NUCIND"> F  </i>
   <v name="MAGPOS">      0.00000000      0.00000000      0.00000000</v>
   <i type="logical" name="LNICSALL"> T  </i>
   <i type="logical" name="ORBITALMAG"> F  </i>
   <i type="logical" name="LMAGBLOCH"> F  </i>
   <i type="logical" name="LCHIMAG"> F  </i>
   <i type="logical" name="LGAUGE"> T  </i>
   <i type="int" name="MAGATOM">     0</i>
   <v name="MAGDIPOL">      0.00000000      0.00000000      0.00000000</v>
   <v name="AVECCONST">      0.00000000      0.00000000      0.00000000</v>
  </separator>
  <separator name="response functions" >
   <i type="logical" name="LADDER"> F  </i>
   <i type="logical" name="LRPAFORCE"> F  </i>
   <i type="logical" name="LFXC"> F  </i>
   <i type="logical" name="LHARTREE"> T  </i>
   <i type="int" name="IBSE">     0</i>
   <v type="int" name="KPOINT">    -1     0     0     0</v>
   <i type="logical" name="LTCTE"> F  </i>
   <i type="logical" name="LTETE"> F  </i>
   <i type="logical" name="LTRIPLET"> F  </i>
   <i type="logical" name="LFXCEPS"> F  </i>
   <i type="logical" name="LFXHEG"> F  </i>
   <i type="int" name="NATURALO">     2</i>
   <i type="logical" name="L2ORDER"> F  </i>
   <i type="logical" name="LMP2LT"> F  </i>
   <i type="logical" name="LUSEW"> F  </i>
   <i name="ENCUTGW">     -2.00000000</i>
   <i name="ENCUTGWSOFT">     -2.00000000</i>
   <i name="ENCUTLF">     -1.00000000</i>
   <i type="int" name="LMAXMP2">    -1</i>
   <i name="SCISSOR">      0.00000000</i>
   <i type="int" name="NOMEGA">     0</i>
   <i type="int" name="NOMEGAR">     0</i>
   <i type="int" name="NBANDSGW">    -1</i>
   <i type="int" name="NBANDSO">    -1</i>
   <i type="int" name="NBANDSV">    -1</i>
   <i type="int" name="NELM">   200</i>
   <i type="int" name="NELMHF">     1</i>
   <i type="int" name="DIM">     3</i>
   <i type="int" name="ANTIRES">     0</i>
   <i name="OMEGAMAX">    -30.00000000</i>
   <i name="OMEGAMIN">    -30.00000000</i>
   <i name="OMEGATL">   -200.00000000</i>
   <i type="int" name="OMEGAGRID">   140</i>
   <i name="CSHIFT">     -0.10000000</i>
   <i type="logical" name="SELFENERGY"> F  </i>
   <i type="logical" name="LSPECTRAL"> F  </i>
   <i type="logical" name="LSPECTRALGW"> F  </i>
   <i type="logical" name="LSINGLES"> F  </i>
   <i type="logical" name="LFERMIGW"> F  </i>
   <i type="logical" name="ODDONLYGW"> F  </i>
   <i type="logical" name="EVENONLYGW"> F  </i>
   <i type="int" name="NKREDLFX">     1</i>
   <i type="int" name="NKREDLFY">     1</i>
   <i type="int" name="NKREDLFZ">     1</i>
   <i type="int" name="MAXMEM">  2800</i>
   <i type="int" name="TELESCOPE">     0</i>
   <i type="int" name="TAUPAR">     1</i>
   <i type="int" name="OMEGAPAR">    -1</i>
   <i name="LAMBDA">      1.00000000</i>
  </separator>
  <separator name="External order field" >
   <i name="OFIELD_KAPPA">      0.00000000</i>
   <v name="OFIELD_K">      0.00000000      0.00000000      0.00000000</v>
   <i name="OFIELD_Q6_NEAR">      0.00000000</i>
   <i name="OFIELD_Q6_FAR">      0.00000000</i>
   <i name="OFIELD_A">      0.00000000</i>
  </separator>
  <separator name="solvation model" >
   <i type="logical" name="LSOL"> F  </i>
  </separator>
 </parameters>
 <atominfo>
  <atoms>     168 </atoms>
  <types>       4 </types>
  <array name="atoms" >
   <dimension dim="1">ion</dimension>
   <field type="string">element</field>
   <field type="int">atomtype</field>
   <set>
    <rc><c>C </c><c>   1</c></rc>
    <rc><c>C </c><c>   1</c></rc>
    <rc><c>C </c><c>   1</c></rc>
    <rc><c>C </c><c>   1</c></rc>
    <rc><c>C </c><c>   1</c></rc>
    <rc><c>C </c><c>   1</c></rc>
    <rc><c>C </c><c>   1</c></rc>
    <rc><c>C </c><c>   1</c></rc>
    <rc><c>C </c><c>   1</c></rc>
    <rc><c>C </c><c>   1</c></rc>
    <rc><c>C </c><c>   1</c></rc>
    <rc><c>C </c><c>   1</c></rc>
    <rc><c>C </c><c>   1</c></rc>
    <rc><c>C </c><c>   1</c></rc>
    <rc><c>C </c><c>   1</c></rc>
    <rc><c>C </c><c>   1</c></rc>
    <rc><c>C </c><c>   1</c></rc>
    <rc><c>C </c><c>   1</c></rc>
    <rc><c>C </c><c>   1</c></rc>
    <rc><c>C </c><c>   1</c></rc>
    <rc><c>C </c><c>   1</c></rc>
    <rc><c>C </c><c>   1</c></rc>
    <rc><c>C </c><c>   1</c></rc>
    <rc><c>C </c><c>   1</c></rc>
    <rc><c>C </c><c>   1</c></rc>
    <rc><c>C </c><c>   1</c></rc>
    <rc><c>C </c><c>   1</c></rc>
    <rc><c>C </c><c>   1</c></rc>
    <rc><c>C </c><c>   1</c></rc>
    <rc><c>C </c><c>   1</c></rc>
    <rc><c>C </c><c>   1</c></rc>
    <rc><c>C </c><c>   1</c></rc>
    <rc><c>C </c><c>   1</c></rc>
    <rc><c>C </c><c>   1</c></rc>
    <rc><c>C </c><c>   1</c></rc>
    <rc><c>C </c><c>   1</c></rc>
    <rc><c>C </c><c>   1</c></rc>
    <rc><c>C </c><c>   1</c></rc>
    <rc><c>C </c><c>   1</c></rc>
    <rc><c>C </c><c>   1</c></rc>
    <rc><c>C </c><c>   1</c></rc>
    <rc><c>C </c><c>   1</c></rc>
    <rc><c>C </c><c>   1</c></rc>
    <rc><c>C </c><c>   1</c></rc>
    <rc><c>C </c><c>   1</c></rc>
    <rc><c>C </c><c>   1</c></rc>
    <rc><c>C </c><c>   1</c></rc>
    <rc><c>C </c><c>   1</c></rc>
    <rc><c>C </c><c>   1</c></rc>
    <rc><c>C </c><c>   1</c></rc>
    <rc><c>C </c><c>   1</c></rc>
    <rc><c>C </c><c>   1</c></rc>
    <rc><c>C </c><c>   1</c></rc>
    <rc><c>C </c><c>   1</c></rc>
    <rc><c>C </c><c>   1</c></rc>
    <rc><c>C </c><c>   1</c></rc>
    <rc><c>C </c><c>   1</c></rc>
    <rc><c>C </c><c>   1</c></rc>
    <rc><c>C </c><c>   1</c></rc>
    <rc><c>C </c><c>   1</c></rc>
    <rc><c>C </c><c>   1</c></rc>
    <rc><c>C </c><c>   1</c></rc>
    <rc><c>C </c><c>   1</c></rc>
    <rc><c>C </c><c>   1</c></rc>
    <rc><c>C </c><c>   1</c></rc>
    <rc><c>C </c><c>   1</c></rc>
    <rc><c>C </c><c>   1</c></rc>
    <rc><c>C </c><c>   1</c></rc>
    <rc><c>C </c><c>   1</c></rc>
    <rc><c>C </c><c>   1</c></rc>
    <rc><c>C </c><c>   1</c></rc>
    <rc><c>C </c><c>   1</c></rc>
    <rc><c>C </c><c>   1</c></rc>
    <rc><c>C </c><c>   1</c></rc>
    <rc><c>C </c><c>   1</c></rc>
    <rc><c>C </c><c>   1</c></rc>
    <rc><c>C </c><c>   1</c></rc>
    <rc><c>C </c><c>   1</c></rc>
    <rc><c>C </c><c>   1</c></rc>
    <rc><c>C </c><c>   1</c></rc>
    <rc><c>C </c><c>   1</c></rc>
    <rc><c>C </c><c>   1</c></rc>
    <rc><c>C </c><c>   1</c></rc>
    <rc><c>C </c><c>   1</c></rc>
    <rc><c>C </c><c>   1</c></rc>
    <rc><c>C </c><c>   1</c></rc>
    <rc><c>C </c><c>   1</c></rc>
    <rc><c>C </c><c>   1</c></rc>
    <rc><c>C </c><c>   1</c></rc>
    <rc><c>C </c><c>   1</c></rc>
    <rc><c>C </c><c>   1</c></rc>
    <rc><c>C </c><c>   1</c></rc>
    <rc><c>C </c><c>   1</c></rc>
    <rc><c>C </c><c>   1</c></rc>
    <rc><c>C </c><c>   1</c></rc>
    <rc><c>C </c><c>   1</c></rc>
    <rc><c>N </c><c>   2</c></rc>
    <rc><c>N </c><c>   2</c></rc>
    <rc><c>N </c><c>   2</c></rc>
    <rc><c>N </c><c>   2</c></rc>
    <rc><c>N </c><c>   2</c></rc>
    <rc><c>N </c><c>   2</c></rc>
    <rc><c>N </c><c>   2</c></rc>
    <rc><c>N </c><c>   2</c></rc>
    <rc><c>N </c><c>   2</c></rc>
    <rc><c>N </c><c>   2</c></rc>
    <rc><c>N </c><c>   2</c></rc>
    <rc><c>N </c><c>   2</c></rc>
    <rc><c>H </c><c>   3</c></rc>
    <rc><c>H </c><c>   3</c></rc>
    <rc><c>H </c><c>   3</c></rc>
    <rc><c>H </c><c>   3</c></rc>
    <rc><c>H </c><c>   3</c></rc>
    <rc><c>H </c><c>   3</c></rc>
    <rc><c>H </c><c>   3</c></rc>
    <rc><c>H </c><c>   3</c></rc>
    <rc><c>H </c><c>   3</c></rc>
    <rc><c>H </c><c>   3</c></rc>
    <rc><c>H </c><c>   3</c></rc>
    <rc><c>H </c><c>   3</c></rc>
    <rc><c>H </c><c>   3</c></rc>
    <rc><c>H </c><c>   3</c></rc>
    <rc><c>H </c><c>   3</c></rc>
    <rc><c>H </c><c>   3</c></rc>
    <rc><c>H </c><c>   3</c></rc>
    <rc><c>H </c><c>   3</c></rc>
    <rc><c>H </c><c>   3</c></rc>
    <rc><c>H </c><c>   3</c></rc>
    <rc><c>H </c><c>   3</c></rc>
    <rc><c>H </c><c>   3</c></rc>
    <rc><c>H </c><c>   3</c></rc>
    <rc><c>H </c><c>   3</c></rc>
    <rc><c>H </c><c>   3</c></rc>
    <rc><c>H </c><c>   3</c></rc>
    <rc><c>H </c><c>   3</c></rc>
    <rc><c>H </c><c>   3</c></rc>
    <rc><c>H </c><c>   3</c></rc>
    <rc><c>H </c><c>   3</c></rc>
    <rc><c>H </c><c>   3</c></rc>
    <rc><c>H </c><c>   3</c></rc>
    <rc><c>H </c><c>   3</c></rc>
    <rc><c>H </c><c>   3</c></rc>
    <rc><c>H </c><c>   3</c></rc>
    <rc><c>H </c><c>   3</c></rc>
    <rc><c>H </c><c>   3</c></rc>
    <rc><c>H </c><c>   3</c></rc>
    <rc><c>H </c><c>   3</c></rc>
    <rc><c>H </c><c>   3</c></rc>
    <rc><c>H </c><c>   3</c></rc>
    <rc><c>H </c><c>   3</c></rc>
    <rc><c>H </c><c>   3</c></rc>
    <rc><c>H </c><c>   3</c></rc>
    <rc><c>H </c><c>   3</c></rc>
    <rc><c>H </c><c>   3</c></rc>
    <rc><c>H </c><c>   3</c></rc>
    <rc><c>H </c><c>   3</c></rc>
    <rc><c>O </c><c>   4</c></rc>
    <rc><c>O </c><c>   4</c></rc>
    <rc><c>O </c><c>   4</c></rc>
    <rc><c>O </c><c>   4</c></rc>
    <rc><c>O </c><c>   4</c></rc>
    <rc><c>O </c><c>   4</c></rc>
    <rc><c>O </c><c>   4</c></rc>
    <rc><c>O </c><c>   4</c></rc>
    <rc><c>O </c><c>   4</c></rc>
    <rc><c>O </c><c>   4</c></rc>
    <rc><c>O </c><c>   4</c></rc>
    <rc><c>O </c><c>   4</c></rc>
   </set>
  </array>
  <array name="atomtypes" >
   <dimension dim="1">type</dimension>
   <field type="int">atomspertype</field>
   <field type="string">element</field>
   <field>mass</field>
   <field>valence</field>
   <field type="string">pseudopotential</field>
   <set>
    <rc><c>  96</c><c>C </c><c>     12.01100000</c><c>      4.00000000</c><c>  PAW_PBE C 08Apr2002                   </c></rc>
    <rc><c>  12</c><c>N </c><c>     14.00100000</c><c>      5.00000000</c><c>  PAW_PBE N 08Apr2002                   </c></rc>
    <rc><c>  48</c><c>H </c><c>      1.00000000</c><c>      1.00000000</c><c>  PAW_PBE H 15Jun2001                   </c></rc>
    <rc><c>  12</c><c>O </c><c>     16.00000000</c><c>      6.00000000</c><c>  PAW_PBE O 08Apr2002                   </c></rc>
   </set>
  </array>
 </atominfo>
 <structure name="initialpos" >
  <crystal>
   <varray name="basis" >
    <v>      34.05469579      -0.06204851       0.00000000 </v>
    <v>     -17.07042216      29.57445060       0.00000000 </v>
    <v>       0.00000000       0.00000000      20.00000000 </v>
   </varray>
   <i name="volume">  20121.79447683 </i>
   <varray name="rec_basis" >
    <v>       0.02939544       0.01696710       0.00000000 </v>
    <v>       0.00006167       0.03384857       0.00000000 </v>
    <v>       0.00000000       0.00000000       0.05000000 </v>
   </varray>
  </crystal>
  <varray name="positions" >
   <v>       0.96630646       0.08662900       0.47173234 </v>
   <v>       0.96515037       0.87489169       0.46548361 </v>
   <v>       0.81313216       0.26453605       0.48692473 </v>
   <v>       0.76563259       0.23968480       0.48303413 </v>
   <v>       0.74152821       0.19255101       0.49103847 </v>
   <v>       0.83687025       0.24151804       0.49762076 </v>
   <v>       0.76437914       0.52023284       0.48963482 </v>
   <v>       0.81195868       0.54365073       0.48920782 </v>
   <v>       0.83539891       0.59078547       0.49542581 </v>
   <v>       0.87791924       0.18147825       0.47329717 </v>
   <v>       0.87487783       0.69136814       0.46662596 </v>
   <v>       0.31179929       0.12730407       0.46597737 </v>
   <v>       0.12753808       0.03688461       0.46287669 </v>
   <v>       0.83452870       0.31453418       0.48147880 </v>
   <v>       0.85300927       0.40321861       0.48116939 </v>
   <v>       0.84811888       0.38072679       0.41894029 </v>
   <v>       0.83810952       0.33532440       0.42047279 </v>
   <v>       0.85316426       0.44589511       0.48151430 </v>
   <v>       0.83398131       0.51562478       0.48332379 </v>
   <v>       0.83737321       0.49855321       0.42203061 </v>
   <v>       0.84815355       0.46366134       0.41927373 </v>
   <v>       0.61829948       0.46552272       0.44105712 </v>
   <v>       0.66408909       0.50084669       0.43898001 </v>
   <v>       0.49950141       0.33645339       0.44481115 </v>
   <v>       0.53509132       0.38197547       0.44444245 </v>
   <v>       0.48857113       0.16831171       0.49673378 </v>
   <v>       0.55912967       0.15020306       0.49518500 </v>
   <v>       0.53786258       0.15016072       0.43365116 </v>
   <v>       0.50194496       0.15953696       0.43575146 </v>
   <v>       0.60183180       0.15024459       0.49340675 </v>
   <v>       0.69117143       0.17004994       0.48897066 </v>
   <v>       0.66785606       0.16306844       0.42924817 </v>
   <v>       0.62179686       0.15162573       0.42981743 </v>
   <v>       0.97892362       0.02293993       0.50787051 </v>
   <v>       0.95562555       0.97547644       0.50795214 </v>
   <v>       0.97899550       0.95142554       0.50409632 </v>
   <v>       0.95389028       0.04781723       0.51192912 </v>
   <v>       0.95365455       0.90148419       0.50684112 </v>
   <v>       0.02656084       0.97558524       0.49993461 </v>
   <v>       0.05065155       0.02307730       0.50131124 </v>
   <v>       0.02645076       0.04633133       0.50441314 </v>
   <v>       0.76570584       0.17000436       0.50186882 </v>
   <v>       0.81345609       0.19409916       0.50440236 </v>
   <v>       0.73996175       0.54304371       0.49618368 </v>
   <v>       0.81161944       0.61444464       0.50179991 </v>
   <v>       0.76383544       0.59016527       0.50227066 </v>
   <v>       0.46003518       0.18991627       0.50045384 </v>
   <v>       0.48342697       0.23733097       0.50312494 </v>
   <v>       0.46032655       0.26165301       0.50448906 </v>
   <v>       0.41290723       0.23777755       0.50517370 </v>
   <v>       0.38867130       0.19012582       0.50416746 </v>
   <v>       0.41257986       0.16645584       0.50095434 </v>
   <v>       0.85006104       0.44332534       0.35785177 </v>
   <v>       0.84981077       0.40292624       0.35739302 </v>
   <v>       0.68962084       0.51454951       0.49722789 </v>
   <v>       0.60092723       0.44395038       0.50417582 </v>
   <v>       0.55866203       0.40087925       0.50560459 </v>
   <v>       0.48884470       0.31185238       0.50379821 </v>
   <v>       0.55034890       0.40780393       0.38392046 </v>
   <v>       0.59070949       0.44830690       0.38259030 </v>
   <v>       0.59635658       0.14544701       0.37002754 </v>
   <v>       0.55559330       0.14472027       0.37159657 </v>
   <v>       0.83858110       0.16954446       0.51214066 </v>
   <v>       0.88616247       0.12313599       0.51493784 </v>
   <v>       0.84782128       0.10885452       0.55830148 </v>
   <v>       0.82412490       0.13283131       0.55504775 </v>
   <v>       0.90974568       0.09756440       0.51418364 </v>
   <v>       0.91730633       0.03442533       0.55493923 </v>
   <v>       0.89441461       0.05918070       0.55708858 </v>
   <v>       0.85721509       0.04716368       0.60175420 </v>
   <v>       0.83491781       0.07139368       0.60236252 </v>
   <v>       0.83639220       0.66427374       0.50717502 </v>
   <v>       0.88413998       0.75833072       0.50850703 </v>
   <v>       0.84638783       0.73458879       0.55306050 </v>
   <v>       0.82262639       0.68689714       0.55053253 </v>
   <v>       0.90823726       0.80751663       0.50789362 </v>
   <v>       0.91735006       0.87844498       0.55036048 </v>
   <v>       0.89383266       0.83081161       0.55190258 </v>
   <v>       0.85704751       0.80595032       0.59732047 </v>
   <v>       0.83433889       0.75942237       0.59792225 </v>
   <v>       0.33861022       0.16543907       0.50715488 </v>
   <v>       0.24428477       0.11785479       0.50676710 </v>
   <v>       0.26773646       0.15536559       0.55163481 </v>
   <v>       0.31554615       0.17895638       0.55006924 </v>
   <v>       0.19495581       0.09375843       0.50560666 </v>
   <v>       0.10074377       0.04850585       0.50362371 </v>
   <v>       0.12365243       0.08478697       0.54705221 </v>
   <v>       0.17139391       0.10817845       0.54915254 </v>
   <v>       0.19599903       0.14479312       0.59477254 </v>
   <v>       0.24262402       0.16739444       0.59602863 </v>
   <v>       0.84538444       0.34177736       0.53975657 </v>
   <v>       0.84539573       0.49936576       0.54112170 </v>
   <v>       0.66688096       0.49457633       0.55801173 </v>
   <v>       0.51152608       0.33544266       0.56281675 </v>
   <v>       0.50891817       0.16279862       0.55522100 </v>
   <v>       0.66596132       0.16162343       0.54898578 </v>
   <v>       0.94539848       0.11047520       0.47238101 </v>
   <v>       0.94360969       0.83009305       0.46555379 </v>
   <v>       0.90049641       0.15928199       0.47407560 </v>
   <v>       0.89753102       0.73616391       0.46674650 </v>
   <v>       0.26686047       0.10471200       0.46533041 </v>
   <v>       0.17246667       0.05836069       0.46341276 </v>
   <v>       0.85378860       0.38409533       0.53998092 </v>
   <v>       0.85395195       0.46555401       0.54044775 </v>
   <v>       0.62461765       0.46039856       0.56139511 </v>
   <v>       0.54493574       0.37807550       0.56406930 </v>
   <v>       0.54274736       0.15417254       0.55481818 </v>
   <v>       0.62343946       0.15291027       0.55129686 </v>
   <v>       0.99453024       0.09782367       0.43644931 </v>
   <v>       0.99316010       0.89177265       0.42981702 </v>
   <v>       0.87381483       0.26051964       0.50129598 </v>
   <v>       0.74697602       0.25757132       0.47511466 </v>
   <v>       0.87242652       0.60930464       0.49634026 </v>
   <v>       0.74595028       0.48341473       0.48529998 </v>
   <v>       0.89027917       0.21002103       0.43853291 </v>
   <v>       0.88657112       0.67494249       0.43120696 </v>
   <v>       0.32857356       0.11580863       0.43084910 </v>
   <v>       0.11074987       0.00883399       0.42735449 </v>
   <v>       0.04514758       0.95723769       0.49968932 </v>
   <v>       0.04507227       0.08326672       0.50529253 </v>
   <v>       0.91859796       0.95691409       0.50909876 </v>
   <v>       0.74742061       0.13318104       0.50623374 </v>
   <v>       0.74522863       0.60841889       0.50597898 </v>
   <v>       0.39445926       0.25627070       0.50533556 </v>
   <v>       0.39397138       0.12952247       0.50042285 </v>
   <v>       0.52046390       0.25573551       0.50257461 </v>
   <v>       0.83109157       0.31642602       0.37384070 </v>
   <v>       0.82835896       0.51001453       0.37657349 </v>
   <v>       0.86098615       0.49305438       0.29880881 </v>
   <v>       0.84931535       0.40090358       0.26228334 </v>
   <v>       0.68069302       0.51520097       0.39120455 </v>
   <v>       0.48286365       0.32032566       0.39797465 </v>
   <v>       0.54073649       0.41097482       0.29071425 </v>
   <v>       0.62571150       0.50105827       0.32622452 </v>
   <v>       0.48715420       0.16268485       0.38913906 </v>
   <v>       0.68633470       0.16959996       0.38208466 </v>
   <v>       0.63396580       0.13278655       0.31090348 </v>
   <v>       0.54930329       0.13902248       0.27689630 </v>
   <v>       0.79394503       0.12280207       0.58569441 </v>
   <v>       0.90652937       0.00544447       0.58806856 </v>
   <v>       0.81961914       0.00808608       0.67102011 </v>
   <v>       0.79251700       0.08048066       0.65614744 </v>
   <v>       0.79309689       0.66695626       0.58247553 </v>
   <v>       0.90734246       0.89679664       0.58445667 </v>
   <v>       0.82069931       0.80790952       0.66810178 </v>
   <v>       0.79212912       0.70808042       0.65216329 </v>
   <v>       0.33535889       0.20812371       0.58257937 </v>
   <v>       0.10512386       0.09482507       0.58080467 </v>
   <v>       0.19354846       0.18114262       0.66505380 </v>
   <v>       0.29407918       0.20995961       0.64987267 </v>
   <v>       0.84547003       0.32715974       0.58844552 </v>
   <v>       0.84560709       0.51381476       0.59006019 </v>
   <v>       0.68522199       0.50643854       0.60539410 </v>
   <v>       0.50208336       0.31760513       0.61079410 </v>
   <v>       0.49728534       0.16695111       0.60435132 </v>
   <v>       0.68250588       0.16417388       0.59701561 </v>
   <v>       0.84814927       0.46043052       0.29591459 </v>
   <v>       0.84889507       0.38174617       0.29895001 </v>
   <v>       0.52506845       0.38984564       0.32735834 </v>
   <v>       0.60436111       0.46888947       0.32061131 </v>
   <v>       0.61253051       0.14363980       0.30723718 </v>
   <v>       0.53216544       0.14138134       0.31436526 </v>
   <v>       0.84469393       0.01108046       0.64345358 </v>
   <v>       0.79885800       0.05626844       0.64650647 </v>
   <v>       0.84549542       0.82981823       0.63995297 </v>
   <v>       0.79895246       0.73886419       0.64318450 </v>
   <v>       0.17179401       0.15623883       0.63696309 </v>
   <v>       0.26298123       0.20259344       0.64143037 </v>
  </varray>
 </structure>
 <calculation>
  <scstep>
   <time name="dav">  687.14  694.31</time>
   <time name="total">  687.48  694.66</time>
   <energy>
    <i name="alphaZ">     73.57571716 </i>
    <i name="ewald">  77245.62653382 </i>
    <i name="hartreedc"> -96273.20707087 </i>
    <i name="XCdc">   2033.84891029 </i>
    <i name="pawpsdc">  52480.82643285 </i>
    <i name="pawaedc"> -52588.78883760 </i>
    <i name="eentropy">     -0.00000000 </i>
    <i name="bandstr">  -7277.41062601 </i>
    <i name="atom">  23088.29252335 </i>
    <i name="e_fr_energy">  -1217.23641701 </i>
    <i name="e_wo_entrp">  -1217.23641701 </i>
    <i name="e_0_energy">  -1217.23641701 </i>
   </energy>
  </scstep>
  <scstep>
   <time name="dav">  775.90  784.04</time>
   <time name="total">  775.92  784.07</time>
   <energy>
    <i name="e_fr_energy">  -1217.76520967 </i>
    <i name="e_wo_entrp">  -1217.76520967 </i>
    <i name="e_0_energy">  -1217.76520967 </i>
   </energy>
  </scstep>
  <scstep>
   <time name="dav">  888.84  897.33</time>
   <time name="total">  888.87  897.37</time>
   <energy>
    <i name="e_fr_energy">  -1217.78081716 </i>
    <i name="e_wo_entrp">  -1217.78081716 </i>
    <i name="e_0_energy">  -1217.78081716 </i>
   </energy>
  </scstep>
  <scstep>
   <time name="dav">  771.68  779.13</time>
   <time name="total">  771.72  779.18</time>
   <energy>
    <i name="e_fr_energy">  -1217.78105224 </i>
    <i name="e_wo_entrp">  -1217.78105224 </i>
    <i name="e_0_energy">  -1217.78105224 </i>
   </energy>
  </scstep>
  <scstep>
   <time name="dav">  720.78  727.86</time>
   <time name="total">  720.80  727.89</time>
   <energy>
    <i name="e_fr_energy">  -1217.78106473 </i>
    <i name="e_wo_entrp">  -1217.78106473 </i>
    <i name="e_0_energy">  -1217.78106473 </i>
   </energy>
  </scstep>
  <scstep>
   <time name="dav">  580.33  585.97</time>
   <time name="total">  580.35  585.99</time>
   <energy>
    <i name="alphaZ">     73.57571716 </i>
    <i name="ewald">  77245.62653382 </i>
    <i name="hartreedc"> -96273.20707087 </i>
    <i name="XCdc">   2033.84891029 </i>
    <i name="pawpsdc">  52480.82643285 </i>
    <i name="pawaedc"> -52588.78883760 </i>
    <i name="eentropy">     -0.00000000 </i>
    <i name="bandstr">  -7277.95527403 </i>
    <i name="atom">  23088.29252335 </i>
    <i name="e_fr_energy">  -1217.78106504 </i>
    <i name="e_wo_entrp">  -1217.78106504 </i>
    <i name="e_0_energy">  -1217.78106504 </i>
   </energy>
  </scstep>
  <structure>
   <crystal>
    <varray name="basis" >
     <v>      34.05469579      -0.06204851       0.00000000 </v>
     <v>     -17.07042216      29.57445060       0.00000000 </v>
     <v>       0.00000000       0.00000000      20.00000000 </v>
    </varray>
    <i name="volume">  20121.79447683 </i>
    <varray name="rec_basis" >
     <v>       0.02939544       0.01696710       0.00000000 </v>
     <v>       0.00006167       0.03384857       0.00000000 </v>
     <v>       0.00000000       0.00000000       0.05000000 </v>
    </varray>
   </crystal>
   <varray name="positions" >
    <v>       0.96630646       0.08662900       0.47173234 </v>
    <v>       0.96515037       0.87489169       0.46548361 </v>
    <v>       0.81313216       0.26453605       0.48692473 </v>
    <v>       0.76563259       0.23968480       0.48303413 </v>
    <v>       0.74152821       0.19255101       0.49103847 </v>
    <v>       0.83687025       0.24151804       0.49762076 </v>
    <v>       0.76437914       0.52023284       0.48963482 </v>
    <v>       0.81195868       0.54365073       0.48920782 </v>
    <v>       0.83539891       0.59078547       0.49542581 </v>
    <v>       0.87791924       0.18147825       0.47329717 </v>
    <v>       0.87487783       0.69136814       0.46662596 </v>
    <v>       0.31179929       0.12730407       0.46597737 </v>
    <v>       0.12753808       0.03688461       0.46287669 </v>
    <v>       0.83452870       0.31453418       0.48147880 </v>
    <v>       0.85300927       0.40321861       0.48116939 </v>
    <v>       0.84811888       0.38072679       0.41894029 </v>
    <v>       0.83810952       0.33532440       0.42047279 </v>
    <v>       0.85316426       0.44589511       0.48151430 </v>
    <v>       0.83398131       0.51562478       0.48332379 </v>
    <v>       0.83737321       0.49855321       0.42203061 </v>
    <v>       0.84815355       0.46366134       0.41927373 </v>
    <v>       0.61829948       0.46552272       0.44105712 </v>
    <v>       0.66408909       0.50084669       0.43898001 </v>
    <v>       0.49950141       0.33645339       0.44481115 </v>
    <v>       0.53509132       0.38197547       0.44444245 </v>
    <v>       0.48857113       0.16831171       0.49673378 </v>
    <v>       0.55912967       0.15020306       0.49518500 </v>
    <v>       0.53786258       0.15016072       0.43365116 </v>
    <v>       0.50194496       0.15953696       0.43575146 </v>
    <v>       0.60183180       0.15024459       0.49340675 </v>
    <v>       0.69117143       0.17004994       0.48897066 </v>
    <v>       0.66785606       0.16306844       0.42924817 </v>
    <v>       0.62179686       0.15162573       0.42981743 </v>
    <v>       0.97892362       0.02293993       0.50787051 </v>
    <v>       0.95562555       0.97547644       0.50795214 </v>
    <v>       0.97899550       0.95142554       0.50409632 </v>
    <v>       0.95389028       0.04781723       0.51192912 </v>
    <v>       0.95365455       0.90148419       0.50684112 </v>
    <v>       0.02656084       0.97558524       0.49993461 </v>
    <v>       0.05065155       0.02307730       0.50131124 </v>
    <v>       0.02645076       0.04633133       0.50441314 </v>
    <v>       0.76570584       0.17000436       0.50186882 </v>
    <v>       0.81345609       0.19409916       0.50440236 </v>
    <v>       0.73996175       0.54304371       0.49618368 </v>
    <v>       0.81161944       0.61444464       0.50179991 </v>
    <v>       0.76383544       0.59016527       0.50227066 </v>
    <v>       0.46003518       0.18991627       0.50045384 </v>
    <v>       0.48342697       0.23733097       0.50312494 </v>
    <v>       0.46032655       0.26165301       0.50448906 </v>
    <v>       0.41290723       0.23777755       0.50517370 </v>
    <v>       0.38867130       0.19012582       0.50416746 </v>
    <v>       0.41257986       0.16645584       0.50095434 </v>
    <v>       0.85006104       0.44332534       0.35785177 </v>
    <v>       0.84981077       0.40292624       0.35739302 </v>
    <v>       0.68962084       0.51454951       0.49722789 </v>
    <v>       0.60092723       0.44395038       0.50417582 </v>
    <v>       0.55866203       0.40087925       0.50560459 </v>
    <v>       0.48884470       0.31185238       0.50379821 </v>
    <v>       0.55034890       0.40780393       0.38392046 </v>
    <v>       0.59070949       0.44830690       0.38259030 </v>
    <v>       0.59635658       0.14544701       0.37002754 </v>
    <v>       0.55559330       0.14472027       0.37159657 </v>
    <v>       0.83858110       0.16954446       0.51214066 </v>
    <v>       0.88616247       0.12313599       0.51493784 </v>
    <v>       0.84782128       0.10885452       0.55830148 </v>
    <v>       0.82412490       0.13283131       0.55504775 </v>
    <v>       0.90974568       0.09756440       0.51418364 </v>
    <v>       0.91730633       0.03442533       0.55493923 </v>
    <v>       0.89441461       0.05918070       0.55708858 </v>
    <v>       0.85721509       0.04716368       0.60175420 </v>
    <v>       0.83491781       0.07139368       0.60236252 </v>
    <v>       0.83639220       0.66427374       0.50717502 </v>
    <v>       0.88413998       0.75833072       0.50850703 </v>
    <v>       0.84638783       0.73458879       0.55306050 </v>
    <v>       0.82262639       0.68689714       0.55053253 </v>
    <v>       0.90823726       0.80751663       0.50789362 </v>
    <v>       0.91735006       0.87844498       0.55036048 </v>
    <v>       0.89383266       0.83081161       0.55190258 </v>
    <v>       0.85704751       0.80595032       0.59732047 </v>
    <v>       0.83433889       0.75942237       0.59792225 </v>
    <v>       0.33861022       0.16543907       0.50715488 </v>
    <v>       0.24428477       0.11785479       0.50676710 </v>
    <v>       0.26773646       0.15536559       0.55163481 </v>
    <v>       0.31554615       0.17895638       0.55006924 </v>
    <v>       0.19495581       0.09375843       0.50560666 </v>
    <v>       0.10074377       0.04850585       0.50362371 </v>
    <v>       0.12365243       0.08478697       0.54705221 </v>
    <v>       0.17139391       0.10817845       0.54915254 </v>
    <v>       0.19599903       0.14479312       0.59477254 </v>
    <v>       0.24262402       0.16739444       0.59602863 </v>
    <v>       0.84538444       0.34177736       0.53975657 </v>
    <v>       0.84539573       0.49936576       0.54112170 </v>
    <v>       0.66688096       0.49457633       0.55801173 </v>
    <v>       0.51152608       0.33544266       0.56281675 </v>
    <v>       0.50891817       0.16279862       0.55522100 </v>
    <v>       0.66596132       0.16162343       0.54898578 </v>
    <v>       0.94539848       0.11047520       0.47238101 </v>
    <v>       0.94360969       0.83009305       0.46555379 </v>
    <v>       0.90049641       0.15928199       0.47407560 </v>
    <v>       0.89753102       0.73616391       0.46674650 </v>
    <v>       0.26686047       0.10471200       0.46533041 </v>
    <v>       0.17246667       0.05836069       0.46341276 </v>
    <v>       0.85378860       0.38409533       0.53998092 </v>
    <v>       0.85395195       0.46555401       0.54044775 </v>
    <v>       0.62461765       0.46039856       0.56139511 </v>
    <v>       0.54493574       0.37807550       0.56406930 </v>
    <v>       0.54274736       0.15417254       0.55481818 </v>
    <v>       0.62343946       0.15291027       0.55129686 </v>
    <v>       0.99453024       0.09782367       0.43644931 </v>
    <v>       0.99316010       0.89177265       0.42981702 </v>
    <v>       0.87381483       0.26051964       0.50129598 </v>
    <v>       0.74697602       0.25757132       0.47511466 </v>
    <v>       0.87242652       0.60930464       0.49634026 </v>
    <v>       0.74595028       0.48341473       0.48529998 </v>
    <v>       0.89027917       0.21002103       0.43853291 </v>
    <v>       0.88657112       0.67494249       0.43120696 </v>
    <v>       0.32857356       0.11580863       0.43084910 </v>
    <v>       0.11074987       0.00883399       0.42735449 </v>
    <v>       0.04514758       0.95723769       0.49968932 </v>
    <v>       0.04507227       0.08326672       0.50529253 </v>
    <v>       0.91859796       0.95691409       0.50909876 </v>
    <v>       0.74742061       0.13318104       0.50623374 </v>
    <v>       0.74522863       0.60841889       0.50597898 </v>
    <v>       0.39445926       0.25627070       0.50533556 </v>
    <v>       0.39397138       0.12952247       0.50042285 </v>
    <v>       0.52046390       0.25573551       0.50257461 </v>
    <v>       0.83109157       0.31642602       0.37384070 </v>
    <v>       0.82835896       0.51001453       0.37657349 </v>
    <v>       0.86098615       0.49305438       0.29880881 </v>
    <v>       0.84931535       0.40090358       0.26228334 </v>
    <v>       0.68069302       0.51520097       0.39120455 </v>
    <v>       0.48286365       0.32032566       0.39797465 </v>
    <v>       0.54073649       0.41097482       0.29071425 </v>
    <v>       0.62571150       0.50105827       0.32622452 </v>
    <v>       0.48715420       0.16268485       0.38913906 </v>
    <v>       0.68633470       0.16959996       0.38208466 </v>
    <v>       0.63396580       0.13278655       0.31090348 </v>
    <v>       0.54930329       0.13902248       0.27689630 </v>
    <v>       0.79394503       0.12280207       0.58569441 </v>
    <v>       0.90652937       0.00544447       0.58806856 </v>
    <v>       0.81961914       0.00808608       0.67102011 </v>
    <v>       0.79251700       0.08048066       0.65614744 </v>
    <v>       0.79309689       0.66695626       0.58247553 </v>
    <v>       0.90734246       0.89679664       0.58445667 </v>
    <v>       0.82069931       0.80790952       0.66810178 </v>
    <v>       0.79212912       0.70808042       0.65216329 </v>
    <v>       0.33535889       0.20812371       0.58257937 </v>
    <v>       0.10512386       0.09482507       0.58080467 </v>
    <v>       0.19354846       0.18114262       0.66505380 </v>
    <v>       0.29407918       0.20995961       0.64987267 </v>
    <v>       0.84547003       0.32715974       0.58844552 </v>
    <v>       0.84560709       0.51381476       0.59006019 </v>
    <v>       0.68522199       0.50643854       0.60539410 </v>
    <v>       0.50208336       0.31760513       0.61079410 </v>
    <v>       0.49728534       0.16695111       0.60435132 </v>
    <v>       0.68250588       0.16417388       0.59701561 </v>
    <v>       0.84814927       0.46043052       0.29591459 </v>
    <v>       0.84889507       0.38174617       0.29895001 </v>
    <v>       0.52506845       0.38984564       0.32735834 </v>
    <v>       0.60436111       0.46888947       0.32061131 </v>
    <v>       0.61253051       0.14363980       0.30723718 </v>
    <v>       0.53216544       0.14138134       0.31436526 </v>
    <v>       0.84469393       0.01108046       0.64345358 </v>
    <v>       0.79885800       0.05626844       0.64650647 </v>
    <v>       0.84549542       0.82981823       0.63995297 </v>
    <v>       0.79895246       0.73886419       0.64318450 </v>
    <v>       0.17179401       0.15623883       0.63696309 </v>
    <v>       0.26298123       0.20259344       0.64143037 </v>
   </varray>
  </structure>
  <varray name="forces" >
   <v>      -0.00195903       0.00188348       0.00194889 </v>
   <v>       0.00181382       0.00277102       0.00016246 </v>
   <v>      -0.00010999      -0.00397818       0.00100179 </v>
   <v>      -0.00278426      -0.00270006      -0.00058904 </v>
   <v>       0.00329876       0.00152974      -0.00122259 </v>
   <v>      -0.00150762      -0.00372591      -0.00026408 </v>
   <v>      -0.00386796       0.00166892      -0.00362227 </v>
   <v>       0.00133871       0.00073790      -0.00266748 </v>
   <v>      -0.00193632       0.00194764       0.00155948 </v>
   <v>      -0.00806524       0.00359556      -0.00117545 </v>
   <v>      -0.00027837       0.00443677       0.00042795 </v>
   <v>       0.00307568       0.00086517      -0.00052163 </v>
   <v>      -0.00542307       0.00080248       0.00282623 </v>
   <v>      -0.00322831       0.00466138       0.00248322 </v>
   <v>      -0.00347688      -0.00123796       0.00015849 </v>
   <v>      -0.00334374       0.00091427      -0.00172083 </v>
   <v>       0.00252345       0.00256876      -0.00344132 </v>
   <v>      -0.00326557      -0.00657300      -0.00479618 </v>
   <v>      -0.00110409       0.00124737      -0.00069911 </v>
   <v>      -0.00208971       0.00480760       0.00142100 </v>
   <v>       0.00299971       0.00014582      -0.00233631 </v>
   <v>       0.00259715       0.00455153       0.00146139 </v>
   <v>      -0.00761667      -0.00210342      -0.00291862 </v>
   <v>       0.00429079      -0.00158274      -0.00138032 </v>
   <v>       0.00155379       0.00261550      -0.00051252 </v>
   <v>      -0.00081808       0.00310294      -0.00045101 </v>
   <v>       0.00170619       0.00452438       0.00443694 </v>
   <v>       0.00315110      -0.00337284      -0.00221792 </v>
   <v>       0.00277698      -0.00084582      -0.00021147 </v>
   <v>       0.00044561      -0.00431105       0.00388276 </v>
   <v>      -0.00078048       0.00570246       0.00271046 </v>
   <v>       0.00419999      -0.00209035      -0.00481912 </v>
   <v>       0.00125677       0.00127852      -0.00368892 </v>
   <v>      -0.00439765       0.00492751       0.00203559 </v>
   <v>       0.00809586       0.00138652       0.00008691 </v>
   <v>      -0.00457029      -0.00362853       0.00255364 </v>
   <v>      -0.00321036       0.00009419       0.00053248 </v>
   <v>      -0.00291878       0.00321429       0.00052327 </v>
   <v>      -0.00266070      -0.00333406       0.00502021 </v>
   <v>      -0.00088439       0.00069351      -0.00517804 </v>
   <v>       0.00087872      -0.00019703       0.00412954 </v>
   <v>       0.00556918       0.00450038       0.00253182 </v>
   <v>       0.00481852       0.00217292      -0.00168501 </v>
   <v>      -0.00105528       0.00323904       0.00313657 </v>
   <v>      -0.00519919       0.00332662      -0.00072252 </v>
   <v>       0.00539364       0.00068298      -0.00170720 </v>
   <v>      -0.00525046      -0.00083631       0.00317514 </v>
   <v>      -0.00000420      -0.00094997      -0.00038765 </v>
   <v>       0.00433029      -0.00149756       0.00129273 </v>
   <v>       0.00044892      -0.00250560      -0.00427644 </v>
   <v>       0.00182540      -0.00024493       0.00001450 </v>
   <v>      -0.00457604       0.00222033      -0.00386857 </v>
   <v>       0.00358306      -0.00228963      -0.00066577 </v>
   <v>       0.00458018      -0.00143268      -0.00115050 </v>
   <v>       0.00255216      -0.00263971       0.00257201 </v>
   <v>       0.00020666      -0.00008574      -0.00158278 </v>
   <v>      -0.00307685      -0.00165382       0.00300827 </v>
   <v>      -0.00188535      -0.00048292      -0.00512719 </v>
   <v>       0.00607358       0.00323374      -0.00097953 </v>
   <v>       0.00260903       0.00636658       0.00366782 </v>
   <v>      -0.00054139       0.00024352      -0.00127547 </v>
   <v>      -0.00200948      -0.00029832      -0.00256448 </v>
   <v>      -0.00417953      -0.00183260       0.00070639 </v>
   <v>       0.00286920       0.00618843      -0.00284797 </v>
   <v>      -0.00231174      -0.00222187       0.00197266 </v>
   <v>      -0.00118891       0.00175056      -0.00046702 </v>
   <v>       0.00193197      -0.00639948       0.00130265 </v>
   <v>       0.00571015      -0.00310582       0.00068708 </v>
   <v>       0.00084367      -0.00242340      -0.00140029 </v>
   <v>      -0.00317903       0.00069867      -0.00299690 </v>
   <v>      -0.00382324      -0.00152312       0.00258157 </v>
   <v>       0.00023682      -0.00402701       0.00071256 </v>
   <v>      -0.00061247       0.00011125      -0.00066222 </v>
   <v>       0.00511835      -0.00116721      -0.00236456 </v>
   <v>       0.00004908      -0.00106333       0.00100280 </v>
   <v>      -0.00102290      -0.00021936       0.00006038 </v>
   <v>       0.00379483       0.00320638      -0.00123681 </v>
   <v>      -0.00182428      -0.00347155       0.00312368 </v>
   <v>       0.00474314      -0.00237275      -0.00296338 </v>
   <v>       0.00598441      -0.00080984      -0.00369368 </v>
   <v>       0.00459199       0.00107836      -0.00151245 </v>
   <v>      -0.00160875       0.00140087      -0.00328749 </v>
   <v>       0.00460022      -0.00251253      -0.00119122 </v>
   <v>      -0.00028261      -0.00124057      -0.00548977 </v>
   <v>      -0.00365852      -0.00051612       0.00592249 </v>
   <v>       0.00168442      -0.00171109       0.00469149 </v>
   <v>       0.00111508       0.00094542       0.00092739 </v>
   <v>      -0.00105501       0.00115030       0.00186716 </v>
   <v>       0.00549691       0.00136518       0.00055892 </v>
   <v>       0.00528339       0.00331620      -0.00049825 </v>
   <v>      -0.00054971       0.00587669       0.00124447 </v>
   <v>      -0.00239826       0.00293679      -0.00044517 </v>
   <v>       0.00552246       0.00029300      -0.00145248 </v>
   <v>       0.00142103       0.00192056       0.00056929 </v>
   <v>       0.00061103       0.00074181       0.00295346 </v>
   <v>       0.00149298      -0.00313373       0.00311278 </v>
   <v>       0.00078213      -0.00471208       0.00245340 </v>
   <v>      -0.00175166       0.00039973       0.00171837 </v>
   <v>      -0.00023639      -0.00242024       0.00407388 </v>
   <v>      -0.00414790       0.00067654       0.00171560 </v>
   <v>      -0.00795423       0.00161460      -0.00244929 </v>
   <v>       0.00189354      -0.00579401      -0.00639308 </v>
   <v>       0.00094902      -0.00546815       0.00177408 </v>
   <v>       0.00364889      -0.00324328      -0.00161969 </v>
   <v>       0.00349115      -0.00173791      -0.00278837 </v>
   <v>      -0.00292450       0.00432599      -0.00417400 </v>
   <v>      -0.00021850      -0.00033939       0.00169184 </v>
   <v>      -0.00394128       0.00340805       0.00259957 </v>
   <v>       0.00317940      -0.00054972       0.00086752 </v>
   <v>       0.00108455       0.00191854       0.00082245 </v>
   <v>       0.00142268      -0.00000785      -0.00035009 </v>
   <v>       0.00178253      -0.00243658      -0.00129196 </v>
   <v>       0.00292289       0.00047277      -0.00019639 </v>
   <v>       0.00289561      -0.00367699      -0.00148947 </v>
   <v>       0.00293072      -0.00323906       0.00331261 </v>
   <v>       0.00228859      -0.00042489      -0.00005390 </v>
   <v>      -0.00044271      -0.00184981       0.00059616 </v>
   <v>       0.00196119      -0.00204203       0.00368553 </v>
   <v>       0.00109164      -0.00060150       0.00082602 </v>
   <v>      -0.00140885      -0.00156131      -0.00102201 </v>
   <v>      -0.00270212      -0.00243138       0.00270808 </v>
   <v>       0.00005954      -0.00336554      -0.00027625 </v>
   <v>       0.00185110      -0.00349852      -0.00193504 </v>
   <v>       0.00007158      -0.00054609      -0.00243890 </v>
   <v>       0.00270925       0.00062365      -0.00152468 </v>
   <v>       0.00165588       0.00282029       0.00212833 </v>
   <v>       0.00048813       0.00012758       0.00011121 </v>
   <v>       0.00154122      -0.00255451      -0.00185321 </v>
   <v>       0.00000169       0.00113447       0.00149043 </v>
   <v>       0.00249425      -0.00430118       0.00050809 </v>
   <v>      -0.00099382       0.00140947       0.00141978 </v>
   <v>      -0.00290127       0.00047221       0.00093780 </v>
   <v>      -0.00178901      -0.00177221       0.00621746 </v>
   <v>      -0.00528012      -0.00323841       0.00172723 </v>
   <v>      -0.00017209      -0.00191145       0.00077193 </v>
   <v>       0.00216384       0.00177858      -0.00144703 </v>
[...]
       <r>   -15.7144    30.4623   159.1439 </r>
       <r>   -15.6112    40.6841   166.1988 </r>
       <r>   -15.5080     0.0000   168.0000 </r>
       <r>   -15.4048     0.0000   168.0000 </r>
       <r>   -15.3016     0.0001   168.0000 </r>
       <r>   -15.1984    31.3373   171.2342 </r>
       <r>   -15.0952    17.4402   174.0000 </r>
       <r>   -14.9919    25.0034   176.5805 </r>
       <r>   -14.8887    12.9824   178.7399 </r>
       <r>   -14.7855    17.3348   181.7890 </r>
       <r>   -14.6823    34.0483   185.9807 </r>
       <r>   -14.5791    31.9992   189.3025 </r>
       <r>   -14.4759    35.4880   193.8960 </r>
       <r>   -14.3727    38.7573   197.9999 </r>
       <r>   -14.2695     0.0000   198.0000 </r>
       <r>   -14.1663    19.3789   200.0000 </r>
       <r>   -14.0631     0.0000   200.0000 </r>
       <r>   -13.9599    19.3789   202.0000 </r>
       <r>   -13.8567     0.0000   202.0000 </r>
       <r>   -13.7535    20.1067   204.0751 </r>
       <r>   -13.6503    38.7521   209.9994 </r>
       <r>   -13.5471     0.0000   210.0000 </r>
       <r>   -13.4439    44.2328   214.5650 </r>
       <r>   -13.3407    38.7518   219.9994 </r>
       <r>   -13.2375    19.3924   222.0014 </r>
       <r>   -13.1343    11.9489   224.0000 </r>
       <r>   -13.0310    19.2362   225.9853 </r>
       <r>   -12.9278    41.1492   230.2468 </r>
       <r>   -12.8246     0.0000   232.0000 </r>
       <r>   -12.7214    19.3007   233.9919 </r>
       <r>   -12.6182    20.6125   236.1273 </r>
       <r>   -12.5150    31.5879   239.9267 </r>
       <r>   -12.4118    28.2851   244.0527 </r>
       <r>   -12.3086    44.6972   250.6130 </r>
       <r>   -12.2054     0.0000   252.0000 </r>
       <r>   -12.1022     0.0000   252.0000 </r>
       <r>   -11.9990     4.9710   252.5130 </r>
       <r>   -11.8958    38.6680   257.9907 </r>
       <r>   -11.7926    54.8153   263.6572 </r>
       <r>   -11.6894    19.1370   265.9750 </r>
       <r>   -11.5862    58.3987   272.0270 </r>
       <r>   -11.4830    26.6687   276.0191 </r>
       <r>   -11.3798    38.9479   282.0196 </r>
       <r>   -11.2766    20.0736   286.0717 </r>
       <r>   -11.1734    39.2000   292.0456 </r>
       <r>   -11.0702     0.0070   294.0007 </r>
       <r>   -10.9669    70.0127   301.8925 </r>
       <r>   -10.8637    38.6437   305.9882 </r>
       <r>   -10.7605    66.3816   313.1511 </r>
       <r>   -10.6573    22.2507   318.2964 </r>
       <r>   -10.5541    19.3789   322.0000 </r>
       <r>   -10.4509    38.7091   325.9950 </r>
       <r>   -10.3477    19.3758   327.9997 </r>
       <r>   -10.2445    19.2983   329.9917 </r>
       <r>   -10.1413    15.1798   332.0000 </r>
       <r>   -10.0381    13.4152   333.3845 </r>
       <r>    -9.9349    29.6967   337.9983 </r>
       <r>    -9.8317    75.0535   346.5130 </r>
       <r>    -9.7285    62.6097   354.4618 </r>
       <r>    -9.6253    81.3287   364.3938 </r>
       <r>    -9.5221    57.4147   371.9255 </r>
       <r>    -9.4189    42.4602   378.3821 </r>
       <r>    -9.3157    65.3974   386.7493 </r>
       <r>    -9.2125    93.2459   399.6235 </r>
       <r>    -9.1093    46.3393   406.7824 </r>
       <r>    -9.0061    45.5658   415.7360 </r>
       <r>    -8.9028    58.1709   422.0035 </r>
       <r>    -8.7996     8.3314   424.1599 </r>
       <r>    -8.6964    54.5099   431.6257 </r>
       <r>    -8.5932    71.0835   439.3362 </r>
       <r>    -8.4900    44.0512   444.5465 </r>
       <r>    -8.3868    18.0719   447.2986 </r>
       <r>    -8.2836    34.1788   451.5274 </r>
       <r>    -8.1804    36.4023   455.7569 </r>
       <r>    -8.0772    28.7234   458.9644 </r>
       <r>    -7.9740    38.7578   464.0000 </r>
       <r>    -7.8708     0.0000   464.0000 </r>
       <r>    -7.7676     0.0000   464.0000 </r>
       <r>    -7.6644     0.0000   464.0000 </r>
       <r>    -7.5612     7.8850   464.8138 </r>
       <r>    -7.4580    19.3789   468.0000 </r>
       <r>    -7.3548    11.3712   469.1736 </r>
       <r>    -7.2516    53.3698   475.5080 </r>
       <r>    -7.1484    40.5382   482.1837 </r>
       <r>    -7.0452    39.8160   488.1092 </r>
       <r>    -6.9420    57.3406   495.9178 </r>
       <r>    -6.8387    32.7022   499.9754 </r>
       <r>    -6.7355     0.0000   500.0000 </r>
       <r>    -6.6323    19.3792   502.0000 </r>
       <r>    -6.5291    19.3787   504.0000 </r>
       <r>    -6.4259    19.3815   506.0003 </r>
       <r>    -6.3227    50.9335   511.2569 </r>
       <r>    -6.2195     0.0000   512.0000 </r>
       <r>    -6.1163     0.0000   512.0000 </r>
       <r>    -6.0131    34.8621   515.5979 </r>
       <r>    -5.9099     0.0000   516.0000 </r>
       <r>    -5.8067    20.3383   518.0990 </r>
       <r>    -5.7035    29.6335   523.0583 </r>
       <r>    -5.6003    63.6843   531.9728 </r>
       <r>    -5.4971    38.5301   535.9766 </r>
       <r>    -5.3939     0.0510   536.0053 </r>
       <r>    -5.2907    55.1370   543.0907 </r>
       <r>    -5.1875    49.4061   549.0990 </r>
       <r>    -5.0843    19.3789   552.0000 </r>
       <r>    -4.9811     0.0000   552.0000 </r>
       <r>    -4.8779    61.4836   558.3454 </r>
       <r>    -4.7746    28.7903   562.9716 </r>
       <r>    -4.6714     0.0000   564.0000 </r>
       <r>    -4.5682     0.0000   564.0000 </r>
       <r>    -4.4650     0.0000   564.0000 </r>
       <r>    -4.3618     0.0000   564.0000 </r>
       <r>    -4.2586     0.0000   564.0000 </r>
       <r>    -4.1554     0.0000   564.0000 </r>
       <r>    -4.0522     0.0000   564.0000 </r>
       <r>    -3.9490     0.0000   564.0000 </r>
       <r>    -3.8458     0.0000   564.0000 </r>
       <r>    -3.7426     0.0000   564.0000 </r>
       <r>    -3.6394     0.0000   564.0000 </r>
       <r>    -3.5362     0.0000   564.0000 </r>
       <r>    -3.4330     0.0000   564.0000 </r>
       <r>    -3.3298     0.0000   564.0000 </r>
       <r>    -3.2266     0.0000   564.0000 </r>
       <r>    -3.1234     0.0000   564.0000 </r>
       <r>    -3.0202     0.0000   564.0000 </r>
       <r>    -2.9170     0.0000   564.0000 </r>
       <r>    -2.8138     0.0000   564.0000 </r>
       <r>    -2.7105     0.0000   564.0000 </r>
       <r>    -2.6073     0.0000   564.0000 </r>
       <r>    -2.5041     0.0005   564.0000 </r>
       <r>    -2.4009    38.7367   567.9979 </r>
       <r>    -2.2977    21.4053   570.2091 </r>
       <r>    -2.1945    38.7575   576.0000 </r>
       <r>    -2.0913    19.4484   578.0072 </r>
       <r>    -1.9881    57.7573   585.9608 </r>
       <r>    -1.8849    19.3789   588.0000 </r>
       <r>    -1.7817     0.0000   588.0000 </r>
       <r>    -1.6785     0.0000   588.0000 </r>
       <r>    -1.5753     0.0000   588.0000 </r>
       <r>    -1.4721    38.7202   591.9961 </r>
       <r>    -1.3689    27.2030   594.8075 </r>
       <r>    -1.2657    16.4806   598.0009 </r>
       <r>    -1.1625    51.9693   603.9639 </r>
       <r>    -1.0593    19.3270   605.9946 </r>
       <r>    -0.9561    19.5836   608.0211 </r>
       <r>    -0.8529    44.0961   614.5509 </r>
       <r>    -0.7496    39.5545   621.2156 </r>
       <r>    -0.6464     0.0000   624.0000 </r>
       <r>    -0.5432    23.2804   626.4027 </r>
       <r>    -0.4400    20.9648   630.1637 </r>
       <r>    -0.3368     0.2243   632.0232 </r>
       <r>    -0.2336     0.3568   634.0368 </r>
       <r>    -0.1304    19.2875   637.9906 </r>
       <r>    -0.0272    33.9127   642.0000 </r>
       <r>     0.0760    58.1635   648.0028 </r>
       <r>     0.1792    48.5485   653.5438 </r>
       <r>     0.2824    45.6315   658.7094 </r>
       <r>     0.3856    56.5929   665.8407 </r>
       <r>     0.4888    50.6152   671.2238 </r>
       <r>     0.5920    70.9143   680.6522 </r>
       <r>     0.6952    89.3087   691.4840 </r>
       <r>     0.7984    81.7717   702.4393 </r>
       <r>     0.9016   111.8706   717.0125 </r>
       <r>     1.0048   115.0279   732.6716 </r>
       <r>     1.1080    15.8253   736.0000 </r>
       <r>     1.2112     0.0000   736.0000 </r>
       <r>     1.3145     0.0000   736.0000 </r>
       <r>     1.4177     0.0000   736.0000 </r>
       <r>     1.5209     0.0000   736.0000 </r>
       <r>     1.6241     0.0000   736.0000 </r>
       <r>     1.7273     0.0000   736.0000 </r>
       <r>     1.8305     0.0000   736.0000 </r>
       <r>     1.9337     0.0000   736.0000 </r>
       <r>     2.0369     0.0000   736.0000 </r>
       <r>     2.1401     0.0000   736.0000 </r>
       <r>     2.2433     0.0000   736.0000 </r>
       <r>     2.3465     0.0000   736.0000 </r>
       <r>     2.4497     0.0000   736.0000 </r>
      </set>
     </set>
    </array>
   </total>
  </dos>
 </calculation>
 <structure name="finalpos" >
  <crystal>
   <varray name="basis" >
    <v>      34.05469579      -0.06204851       0.00000000 </v>
    <v>     -17.07042216      29.57445060       0.00000000 </v>
    <v>       0.00000000       0.00000000      20.00000000 </v>
   </varray>
   <i name="volume">  20121.79447683 </i>
   <varray name="rec_basis" >
    <v>       0.02939544       0.01696710       0.00000000 </v>
    <v>       0.00006167       0.03384857       0.00000000 </v>
    <v>       0.00000000       0.00000000       0.05000000 </v>
   </varray>
  </crystal>
  <varray name="positions" >
   <v>       0.96630646       0.08662900       0.47173234 </v>
   <v>       0.96515037       0.87489169       0.46548361 </v>
   <v>       0.81313216       0.26453605       0.48692473 </v>
   <v>       0.76563259       0.23968480       0.48303413 </v>
   <v>       0.74152821       0.19255101       0.49103847 </v>
   <v>       0.83687025       0.24151804       0.49762076 </v>
   <v>       0.76437914       0.52023284       0.48963482 </v>
   <v>       0.81195868       0.54365073       0.48920782 </v>
   <v>       0.83539891       0.59078547       0.49542581 </v>
   <v>       0.87791924       0.18147825       0.47329717 </v>
   <v>       0.87487783       0.69136814       0.46662596 </v>
   <v>       0.31179929       0.12730407       0.46597737 </v>
   <v>       0.12753808       0.03688461       0.46287669 </v>
   <v>       0.83452870       0.31453418       0.48147880 </v>
   <v>       0.85300927       0.40321861       0.48116939 </v>
   <v>       0.84811888       0.38072679       0.41894029 </v>
   <v>       0.83810952       0.33532440       0.42047279 </v>
   <v>       0.85316426       0.44589511       0.48151430 </v>
   <v>       0.83398131       0.51562478       0.48332379 </v>
   <v>       0.83737321       0.49855321       0.42203061 </v>
   <v>       0.84815355       0.46366134       0.41927373 </v>
   <v>       0.61829948       0.46552272       0.44105712 </v>
   <v>       0.66408909       0.50084669       0.43898001 </v>
   <v>       0.49950141       0.33645339       0.44481115 </v>
   <v>       0.53509132       0.38197547       0.44444245 </v>
   <v>       0.48857113       0.16831171       0.49673378 </v>
   <v>       0.55912967       0.15020306       0.49518500 </v>
   <v>       0.53786258       0.15016072       0.43365116 </v>
   <v>       0.50194496       0.15953696       0.43575146 </v>
   <v>       0.60183180       0.15024459       0.49340675 </v>
   <v>       0.69117143       0.17004994       0.48897066 </v>
   <v>       0.66785606       0.16306844       0.42924817 </v>
   <v>       0.62179686       0.15162573       0.42981743 </v>
   <v>       0.97892362       0.02293993       0.50787051 </v>
   <v>       0.95562555       0.97547644       0.50795214 </v>
   <v>       0.97899550       0.95142554       0.50409632 </v>
   <v>       0.95389028       0.04781723       0.51192912 </v>
   <v>       0.95365455       0.90148419       0.50684112 </v>
   <v>       0.02656084       0.97558524       0.49993461 </v>
   <v>       0.05065155       0.02307730       0.50131124 </v>
   <v>       0.02645076       0.04633133       0.50441314 </v>
   <v>       0.76570584       0.17000436       0.50186882 </v>
   <v>       0.81345609       0.19409916       0.50440236 </v>
   <v>       0.73996175       0.54304371       0.49618368 </v>
   <v>       0.81161944       0.61444464       0.50179991 </v>
   <v>       0.76383544       0.59016527       0.50227066 </v>
   <v>       0.46003518       0.18991627       0.50045384 </v>
   <v>       0.48342697       0.23733097       0.50312494 </v>
   <v>       0.46032655       0.26165301       0.50448906 </v>
   <v>       0.41290723       0.23777755       0.50517370 </v>
   <v>       0.38867130       0.19012582       0.50416746 </v>
   <v>       0.41257986       0.16645584       0.50095434 </v>
   <v>       0.85006104       0.44332534       0.35785177 </v>
   <v>       0.84981077       0.40292624       0.35739302 </v>
   <v>       0.68962084       0.51454951       0.49722789 </v>
   <v>       0.60092723       0.44395038       0.50417582 </v>
   <v>       0.55866203       0.40087925       0.50560459 </v>
   <v>       0.48884470       0.31185238       0.50379821 </v>
   <v>       0.55034890       0.40780393       0.38392046 </v>
   <v>       0.59070949       0.44830690       0.38259030 </v>
   <v>       0.59635658       0.14544701       0.37002754 </v>
   <v>       0.55559330       0.14472027       0.37159657 </v>
   <v>       0.83858110       0.16954446       0.51214066 </v>
   <v>       0.88616247       0.12313599       0.51493784 </v>
   <v>       0.84782128       0.10885452       0.55830148 </v>
   <v>       0.82412490       0.13283131       0.55504775 </v>
   <v>       0.90974568       0.09756440       0.51418364 </v>
   <v>       0.91730633       0.03442533       0.55493923 </v>
   <v>       0.89441461       0.05918070       0.55708858 </v>
   <v>       0.85721509       0.04716368       0.60175420 </v>
   <v>       0.83491781       0.07139368       0.60236252 </v>
   <v>       0.83639220       0.66427374       0.50717502 </v>
   <v>       0.88413998       0.75833072       0.50850703 </v>
   <v>       0.84638783       0.73458879       0.55306050 </v>
   <v>       0.82262639       0.68689714       0.55053253 </v>
   <v>       0.90823726       0.80751663       0.50789362 </v>
   <v>       0.91735006       0.87844498       0.55036048 </v>
   <v>       0.89383266       0.83081161       0.55190258 </v>
   <v>       0.85704751       0.80595032       0.59732047 </v>
   <v>       0.83433889       0.75942237       0.59792225 </v>
   <v>       0.33861022       0.16543907       0.50715488 </v>
   <v>       0.24428477       0.11785479       0.50676710 </v>
   <v>       0.26773646       0.15536559       0.55163481 </v>
   <v>       0.31554615       0.17895638       0.55006924 </v>
   <v>       0.19495581       0.09375843       0.50560666 </v>
   <v>       0.10074377       0.04850585       0.50362371 </v>
   <v>       0.12365243       0.08478697       0.54705221 </v>
   <v>       0.17139391       0.10817845       0.54915254 </v>
   <v>       0.19599903       0.14479312       0.59477254 </v>
   <v>       0.24262402       0.16739444       0.59602863 </v>
   <v>       0.84538444       0.34177736       0.53975657 </v>
   <v>       0.84539573       0.49936576       0.54112170 </v>
   <v>       0.66688096       0.49457633       0.55801173 </v>
   <v>       0.51152608       0.33544266       0.56281675 </v>
   <v>       0.50891817       0.16279862       0.55522100 </v>
   <v>       0.66596132       0.16162343       0.54898578 </v>
   <v>       0.94539848       0.11047520       0.47238101 </v>
   <v>       0.94360969       0.83009305       0.46555379 </v>
   <v>       0.90049641       0.15928199       0.47407560 </v>
   <v>       0.89753102       0.73616391       0.46674650 </v>
   <v>       0.26686047       0.10471200       0.46533041 </v>
   <v>       0.17246667       0.05836069       0.46341276 </v>
   <v>       0.85378860       0.38409533       0.53998092 </v>
   <v>       0.85395195       0.46555401       0.54044775 </v>
   <v>       0.62461765       0.46039856       0.56139511 </v>
   <v>       0.54493574       0.37807550       0.56406930 </v>
   <v>       0.54274736       0.15417254       0.55481818 </v>
   <v>       0.62343946       0.15291027       0.55129686 </v>
   <v>       0.99453024       0.09782367       0.43644931 </v>
   <v>       0.99316010       0.89177265       0.42981702 </v>
   <v>       0.87381483       0.26051964       0.50129598 </v>
   <v>       0.74697602       0.25757132       0.47511466 </v>
   <v>       0.87242652       0.60930464       0.49634026 </v>
   <v>       0.74595028       0.48341473       0.48529998 </v>
   <v>       0.89027917       0.21002103       0.43853291 </v>
   <v>       0.88657112       0.67494249       0.43120696 </v>
   <v>       0.32857356       0.11580863       0.43084910 </v>
   <v>       0.11074987       0.00883399       0.42735449 </v>
   <v>       0.04514758       0.95723769       0.49968932 </v>
   <v>       0.04507227       0.08326672       0.50529253 </v>
   <v>       0.91859796       0.95691409       0.50909876 </v>
   <v>       0.74742061       0.13318104       0.50623374 </v>
   <v>       0.74522863       0.60841889       0.50597898 </v>
   <v>       0.39445926       0.25627070       0.50533556 </v>
   <v>       0.39397138       0.12952247       0.50042285 </v>
   <v>       0.52046390       0.25573551       0.50257461 </v>
   <v>       0.83109157       0.31642602       0.37384070 </v>
   <v>       0.82835896       0.51001453       0.37657349 </v>
   <v>       0.86098615       0.49305438       0.29880881 </v>
   <v>       0.84931535       0.40090358       0.26228334 </v>
   <v>       0.68069302       0.51520097       0.39120455 </v>
   <v>       0.48286365       0.32032566       0.39797465 </v>
   <v>       0.54073649       0.41097482       0.29071425 </v>
   <v>       0.62571150       0.50105827       0.32622452 </v>
   <v>       0.48715420       0.16268485       0.38913906 </v>
   <v>       0.68633470       0.16959996       0.38208466 </v>
   <v>       0.63396580       0.13278655       0.31090348 </v>
   <v>       0.54930329       0.13902248       0.27689630 </v>
   <v>       0.79394503       0.12280207       0.58569441 </v>
   <v>       0.90652937       0.00544447       0.58806856 </v>
   <v>       0.81961914       0.00808608       0.67102011 </v>
   <v>       0.79251700       0.08048066       0.65614744 </v>
   <v>       0.79309689       0.66695626       0.58247553 </v>
   <v>       0.90734246       0.89679664       0.58445667 </v>
   <v>       0.82069931       0.80790952       0.66810178 </v>
   <v>       0.79212912       0.70808042       0.65216329 </v>
   <v>       0.33535889       0.20812371       0.58257937 </v>
   <v>       0.10512386       0.09482507       0.58080467 </v>
   <v>       0.19354846       0.18114262       0.66505380 </v>
   <v>       0.29407918       0.20995961       0.64987267 </v>
   <v>       0.84547003       0.32715974       0.58844552 </v>
   <v>       0.84560709       0.51381476       0.59006019 </v>
   <v>       0.68522199       0.50643854       0.60539410 </v>
   <v>       0.50208336       0.31760513       0.61079410 </v>
   <v>       0.49728534       0.16695111       0.60435132 </v>
   <v>       0.68250588       0.16417388       0.59701561 </v>
   <v>       0.84814927       0.46043052       0.29591459 </v>
   <v>       0.84889507       0.38174617       0.29895001 </v>
   <v>       0.52506845       0.38984564       0.32735834 </v>
   <v>       0.60436111       0.46888947       0.32061131 </v>
   <v>       0.61253051       0.14363980       0.30723718 </v>
   <v>       0.53216544       0.14138134       0.31436526 </v>
   <v>       0.84469393       0.01108046       0.64345358 </v>
   <v>       0.79885800       0.05626844       0.64650647 </v>
   <v>       0.84549542       0.82981823       0.63995297 </v>
   <v>       0.79895246       0.73886419       0.64318450 </v>
   <v>       0.17179401       0.15623883       0.63696309 </v>
   <v>       0.26298123       0.20259344       0.64143037 </v>
  </varray>
 </structure>
</modeling>
