<?xml version="1.0" encoding="ISO-8859-1"?>
<modeling>
 <generator>
  <i name="program" type="string">vasp </i>
  <i name="version" type="string">5.4.4.18Apr17-6-g9f103f2a35  </i>
  <i name="subversion" type="string">(build Jun 07 2020 16:50:00) complex            parallel </i>
  <i name="platform" type="string">LinuxIFC </i>
  <i name="date" type="string">2023 02 14 </i>
  <i name="time" type="string">04:46:45 </i>
 </generator>
 <incar>
  <i type="string" name="SYSTEM">Simulation for cell shape cell volume r</i>
  <i type="int" name="ISTART">     1</i>
  <i type="string" name="PREC">high</i>
  <i type="string" name="ALGO">48</i>
  <i type="int" name="ICHARG">    11</i>
  <i type="int" name="NELM">   200</i>
  <i type="int" name="IBRION">    -1</i>
  <i name="EDIFF">      0.00001000</i>
  <i name="EDIFFG">     -0.01000000</i>
  <i type="int" name="NSW">     0</i>
  <i type="int" name="ISIF">     2</i>
  <i name="ENCUT">    500.00000000</i>
  <i name="POTIM">      0.30000000</i>
  <i type="string" name="LREAL">A</i>
  <i type="int" name="ISMEAR">     0</i>
  <i name="SIGMA">      0.01000000</i>
  <i type="int" name="NWRITE">     0</i>
  <i type="logical" name="LWAVE"> F  </i>
  <i type="logical" name="LCHARG"> F  </i>
  <v type="int" name="KPOINT_BSE">    -1     0     0     0</v>
  <i type="int" name="NELM">   200</i>
  <i type="string" name="GGA">PE</i>
 </incar>
 <structure name="primitive_cell" >
  <crystal>
   <varray name="basis" >
    <v>      14.33038885       0.00659602       0.00000000 </v>
    <v>      -7.15953678      12.40761308       0.00000000 </v>
    <v>       0.00000000       0.00000000      20.00000000 </v>
   </varray>
   <i name="volume">   3557.06289251 </i>
   <varray name="rec_basis" >
    <v>       0.06976325       0.04025533       0.00000000 </v>
    <v>      -0.00003709       0.08057428       0.00000000 </v>
    <v>       0.00000000       0.00000000       0.05000000 </v>
   </varray>
  </crystal>
  <varray name="positions" >
   <v>      -0.12519146       0.26650367      -0.45705738 </v>
   <v>      -0.10371243       0.28385690       0.48308204 </v>
   <v>      -0.11173314       0.20927253       0.43790647 </v>
   <v>      -0.05375904       0.39963280       0.45879827 </v>
   <v>      -0.15920892       0.13113814       0.45181621 </v>
   <v>      -0.28226751       0.28705976       0.44644466 </v>
   <v>       0.05383033       0.45281095       0.45540765 </v>
   <v>      -0.11186523       0.22520667       0.38854463 </v>
   <v>      -0.11280250       0.45373866       0.44821564 </v>
   <v>      -0.23247584       0.39498110       0.44655918 </v>
   <v>      -0.39525033       0.06616256       0.43877538 </v>
   <v>      -0.39020336       0.23693624       0.44676475 </v>
   <v>       0.10372690      -0.44018850       0.44646277 </v>
   <v>      -0.06214256      -0.43904669       0.43922960 </v>
   <v>      -0.45130365       0.11720184       0.44849781 </v>
   <v>      -0.28261417       0.45285078       0.44590531 </v>
   <v>       0.04515475      -0.38583491       0.44018668 </v>
   <v>      -0.44952703      -0.04116196       0.43992168 </v>
   <v>      -0.40422342      -0.08336478       0.43442635 </v>
   <v>      -0.44822872       0.28685037       0.44628723 </v>
   <v>      -0.39047797       0.39482332       0.44660680 </v>
   <v>       0.22349149      -0.37951091       0.44472377 </v>
   <v>       0.27576010      -0.43528460       0.44432905 </v>
   <v>       0.43580541       0.05849618       0.45984627 </v>
   <v>       0.08706648      -0.29826840       0.43535336 </v>
   <v>       0.30285449       0.40802503       0.43503175 </v>
   <v>       0.43778977      -0.09941361       0.44715867 </v>
   <v>      -0.26222488      -0.37213848      -0.45613551 </v>
   <v>       0.37621572       0.13119400      -0.45550712 </v>
   <v>       0.38111106      -0.04916607       0.45670884 </v>
   <v>       0.27068633      -0.27144852       0.44483310 </v>
   <v>       0.37075772       0.10901470       0.48467015 </v>
   <v>      -0.44933308       0.45576398       0.44856571 </v>
   <v>      -0.27975023      -0.36599687       0.48426435 </v>
   <v>       0.38375473      -0.37454611       0.44527328 </v>
   <v>       0.39030897       0.45351899       0.44030177 </v>
   <v>       0.27324463       0.16461448       0.45412768 </v>
   <v>      -0.12717734      -0.26712388       0.45338827 </v>
   <v>      -0.20534375      -0.29783851       0.43961344 </v>
   <v>      -0.39543637      -0.43125739       0.45978523 </v>
   <v>       0.37863042      -0.21923899       0.44544164 </v>
   <v>       0.43941262      -0.26655100       0.44563528 </v>
   <v>       0.44445290      -0.43371021       0.44720425 </v>
   <v>      -0.22135631      -0.31159934       0.39010412 </v>
   <v>       0.44357892       0.39939226       0.43919163 </v>
   <v>       0.30342769       0.11677927       0.44001767 </v>
   <v>       0.31877573       0.11667781       0.39055395 </v>
   <v>      -0.44869642      -0.37680424       0.45666228 </v>
  </varray>
 </structure>
 <varray name="primitive_index" >
  <v type="int" >        1 </v>
  <v type="int" >       24 </v>
  <v type="int" >       42 </v>
  <v type="int" >       23 </v>
  <v type="int" >        6 </v>
  <v type="int" >       40 </v>
  <v type="int" >       41 </v>
  <v type="int" >        5 </v>
  <v type="int" >       21 </v>
  <v type="int" >       20 </v>
  <v type="int" >       47 </v>
  <v type="int" >       18 </v>
  <v type="int" >       22 </v>
  <v type="int" >       46 </v>
  <v type="int" >       25 </v>
  <v type="int" >       39 </v>
  <v type="int" >       32 </v>
  <v type="int" >       33 </v>
  <v type="int" >       12 </v>
  <v type="int" >       38 </v>
  <v type="int" >       19 </v>
  <v type="int" >       17 </v>
  <v type="int" >       36 </v>
  <v type="int" >       27 </v>
  <v type="int" >       11 </v>
  <v type="int" >        4 </v>
  <v type="int" >       26 </v>
  <v type="int" >        3 </v>
  <v type="int" >        2 </v>
  <v type="int" >       43 </v>
  <v type="int" >       37 </v>
  <v type="int" >       28 </v>
  <v type="int" >       29 </v>
  <v type="int" >       31 </v>
  <v type="int" >       15 </v>
  <v type="int" >       14 </v>
  <v type="int" >        8 </v>
  <v type="int" >       10 </v>
  <v type="int" >       45 </v>
  <v type="int" >       30 </v>
  <v type="int" >       16 </v>
  <v type="int" >       35 </v>
  <v type="int" >       13 </v>
  <v type="int" >        9 </v>
  <v type="int" >       48 </v>
  <v type="int" >       44 </v>
  <v type="int" >        7 </v>
  <v type="int" >       34 </v>
 </varray>
 <kpoints>
  <generation param="listgenerated">
   <i name="divisions" type="int">      20 </i>
   <v>       0.00000000       0.00000000       0.00000000 </v>
   <v>       0.50000000       0.00000000       0.00000000 </v>
   <v>       0.33333333       0.33333333       0.00000000 </v>
   <v>       0.00000000       0.00000000       0.00000000 </v>
  </generation>
  <varray name="kpointlist" >
   <v>       0.00000000       0.00000000       0.00000000 </v>
   <v>       0.02631579       0.00000000       0.00000000 </v>
   <v>       0.05263158       0.00000000       0.00000000 </v>
   <v>       0.07894737       0.00000000       0.00000000 </v>
   <v>       0.10526316       0.00000000       0.00000000 </v>
   <v>       0.13157895       0.00000000       0.00000000 </v>
   <v>       0.15789474       0.00000000       0.00000000 </v>
   <v>       0.18421053       0.00000000       0.00000000 </v>
   <v>       0.21052632       0.00000000       0.00000000 </v>
   <v>       0.23684211       0.00000000       0.00000000 </v>
   <v>       0.26315789       0.00000000       0.00000000 </v>
   <v>       0.28947368       0.00000000       0.00000000 </v>
   <v>       0.31578947       0.00000000       0.00000000 </v>
   <v>       0.34210526       0.00000000       0.00000000 </v>
   <v>       0.36842105       0.00000000       0.00000000 </v>
   <v>       0.39473684       0.00000000       0.00000000 </v>
   <v>       0.42105263       0.00000000       0.00000000 </v>
   <v>       0.44736842       0.00000000       0.00000000 </v>
   <v>       0.47368421       0.00000000       0.00000000 </v>
   <v>       0.50000000       0.00000000       0.00000000 </v>
   <v>       0.50000000       0.00000000       0.00000000 </v>
   <v>       0.49122807       0.01754386       0.00000000 </v>
   <v>       0.48245614       0.03508772       0.00000000 </v>
   <v>       0.47368421       0.05263158       0.00000000 </v>
   <v>       0.46491228       0.07017544       0.00000000 </v>
   <v>       0.45614035       0.08771930       0.00000000 </v>
   <v>       0.44736842       0.10526316       0.00000000 </v>
   <v>       0.43859649       0.12280702       0.00000000 </v>
   <v>       0.42982456       0.14035088       0.00000000 </v>
   <v>       0.42105263       0.15789474       0.00000000 </v>
   <v>       0.41228070       0.17543860       0.00000000 </v>
   <v>       0.40350877       0.19298246       0.00000000 </v>
   <v>       0.39473684       0.21052632       0.00000000 </v>
   <v>       0.38596491       0.22807018       0.00000000 </v>
   <v>       0.37719298       0.24561404       0.00000000 </v>
   <v>       0.36842105       0.26315789       0.00000000 </v>
   <v>       0.35964912       0.28070175       0.00000000 </v>
   <v>       0.35087719       0.29824561       0.00000000 </v>
   <v>       0.34210526       0.31578947       0.00000000 </v>
   <v>       0.33333333       0.33333333       0.00000000 </v>
   <v>       0.33333333       0.33333333       0.00000000 </v>
   <v>       0.31578947       0.31578947       0.00000000 </v>
   <v>       0.29824561       0.29824561       0.00000000 </v>
   <v>       0.28070175       0.28070175       0.00000000 </v>
   <v>       0.26315789       0.26315789       0.00000000 </v>
   <v>       0.24561404       0.24561404       0.00000000 </v>
   <v>       0.22807018       0.22807018       0.00000000 </v>
   <v>       0.21052632       0.21052632       0.00000000 </v>
   <v>       0.19298246       0.19298246       0.00000000 </v>
   <v>       0.17543860       0.17543860       0.00000000 </v>
   <v>       0.15789474       0.15789474       0.00000000 </v>
   <v>       0.14035088       0.14035088       0.00000000 </v>
   <v>       0.12280702       0.12280702       0.00000000 </v>
   <v>       0.10526316       0.10526316       0.00000000 </v>
   <v>       0.08771930       0.08771930       0.00000000 </v>
   <v>       0.07017544       0.07017544       0.00000000 </v>
   <v>       0.05263158       0.05263158       0.00000000 </v>
   <v>       0.03508772       0.03508772       0.00000000 </v>
   <v>       0.01754386       0.01754386       0.00000000 </v>
   <v>       0.00000000       0.00000000       0.00000000 </v>
  </varray>
  <varray name="weights" >
   <v>       0.01666667 </v>
   <v>       0.01666667 </v>
   <v>       0.01666667 </v>
   <v>       0.01666667 </v>
   <v>       0.01666667 </v>
   <v>       0.01666667 </v>
   <v>       0.01666667 </v>
   <v>       0.01666667 </v>
   <v>       0.01666667 </v>
   <v>       0.01666667 </v>
   <v>       0.01666667 </v>
   <v>       0.01666667 </v>
   <v>       0.01666667 </v>
   <v>       0.01666667 </v>
   <v>       0.01666667 </v>
   <v>       0.01666667 </v>
   <v>       0.01666667 </v>
   <v>       0.01666667 </v>
   <v>       0.01666667 </v>
   <v>       0.01666667 </v>
   <v>       0.01666667 </v>
   <v>       0.01666667 </v>
   <v>       0.01666667 </v>
   <v>       0.01666667 </v>
   <v>       0.01666667 </v>
   <v>       0.01666667 </v>
   <v>       0.01666667 </v>
   <v>       0.01666667 </v>
   <v>       0.01666667 </v>
   <v>       0.01666667 </v>
   <v>       0.01666667 </v>
   <v>       0.01666667 </v>
   <v>       0.01666667 </v>
   <v>       0.01666667 </v>
   <v>       0.01666667 </v>
   <v>       0.01666667 </v>
   <v>       0.01666667 </v>
   <v>       0.01666667 </v>
   <v>       0.01666667 </v>
   <v>       0.01666667 </v>
   <v>       0.01666667 </v>
   <v>       0.01666667 </v>
   <v>       0.01666667 </v>
   <v>       0.01666667 </v>
   <v>       0.01666667 </v>
   <v>       0.01666667 </v>
   <v>       0.01666667 </v>
   <v>       0.01666667 </v>
   <v>       0.01666667 </v>
   <v>       0.01666667 </v>
   <v>       0.01666667 </v>
   <v>       0.01666667 </v>
   <v>       0.01666667 </v>
   <v>       0.01666667 </v>
   <v>       0.01666667 </v>
   <v>       0.01666667 </v>
   <v>       0.01666667 </v>
   <v>       0.01666667 </v>
   <v>       0.01666667 </v>
   <v>       0.01666667 </v>
  </varray>
 </kpoints>
 <parameters>
  <separator name="general" >
   <i type="string" name="SYSTEM">Simulation for cell shape cell volume r</i>
   <i type="logical" name="LCOMPAT"> F  </i>
  </separator>
  <separator name="electronic" >
   <i type="string" name="PREC">high</i>
   <i name="ENMAX">    500.00000000</i>
   <i name="ENAUG">    644.87300000</i>
   <i name="EDIFF">      0.00001000</i>
   <i type="int" name="IALGO">    38</i>
   <i type="int" name="IWAVPR">    10</i>
   <i type="int" name="NBANDS">   128</i>
   <i name="NELECT">    186.00000000</i>
   <i type="int" name="TURBO">     0</i>
   <i type="int" name="IRESTART">     0</i>
   <i type="int" name="NREBOOT">     0</i>
   <i type="int" name="NMIN">     0</i>
   <i name="EREF">      0.00000000</i>
   <separator name="electronic smearing" >
    <i type="int" name="ISMEAR">     0</i>
    <i name="SIGMA">      0.01000000</i>
    <i name="KSPACING">      0.50000000</i>
    <i type="logical" name="KGAMMA"> T  </i>
   </separator>
   <separator name="electronic projectors" >
    <i type="logical" name="LREAL"> T  </i>
    <v name="ROPT">     -0.00040000     -0.00040000     -0.00040000     -0.00040000</v>
    <i type="int" name="LMAXPAW">  -100</i>
    <i type="int" name="LMAXMIX">     2</i>
    <i type="logical" name="NLSPLINE"> F  </i>
   </separator>
   <separator name="electronic startup" >
    <i type="int" name="ISTART">     1</i>
    <i type="int" name="ICHARG">    11</i>
    <i type="int" name="INIWAV">     1</i>
   </separator>
   <separator name="electronic spin" >
    <i type="int" name="ISPIN">     1</i>
    <i type="logical" name="LNONCOLLINEAR"> F  </i>
    <v name="MAGMOM">      1.00000000      1.00000000      1.00000000      1.00000000      1.00000000      1.00000000      1.00000000      1.00000000      1.00000000      1.00000000      1.00000000      1.00000000      1.00000000      1.00000000      1.00000000      1.00000000      1.00000000      1.00000000      1.00000000      1.00000000
      1.00000000      1.00000000      1.00000000      1.00000000      1.00000000      1.00000000      1.00000000      1.00000000      1.00000000      1.00000000      1.00000000      1.00000000      1.00000000      1.00000000      1.00000000      1.00000000      1.00000000      1.00000000      1.00000000      1.00000000
      1.00000000      1.00000000      1.00000000      1.00000000      1.00000000      1.00000000      1.00000000      1.00000000</v>
    <i name="NUPDOWN">     -1.00000000</i>
    <i type="logical" name="LSORBIT"> F  </i>
    <v name="SAXIS">      0.00000000      0.00000000      1.00000000</v>
    <i type="logical" name="LSPIRAL"> F  </i>
    <v name="QSPIRAL">      0.00000000      0.00000000      0.00000000</v>
    <i type="logical" name="LZEROZ"> F  </i>
   </separator>
   <separator name="electronic exchange-correlation" >
    <i type="logical" name="LASPH"> F  </i>
    <i type="logical" name="LMETAGGA"> F  </i>
   </separator>
   <separator name="electronic convergence" >
    <i type="int" name="NELM">   200</i>
    <i type="int" name="NELMDL">     0</i>
    <i type="int" name="NELMIN">     2</i>
    <i name="ENINI">    500.00000000</i>
    <separator name="electronic convergence detail" >
     <i type="logical" name="LDIAG"> T  </i>
     <i type="logical" name="LSUBROT"> F  </i>
     <i name="WEIMIN">      0.00000000</i>
     <i name="EBREAK">      0.00000002</i>
     <i name="DEPER">      0.30000000</i>
     <i type="int" name="NRMM">     4</i>
     <i name="TIME">      0.40000000</i>
    </separator>
   </separator>
   <separator name="electronic mixer" >
    <i name="AMIX">      0.40000000</i>
    <i name="BMIX">      1.00000000</i>
    <i name="AMIN">      0.10000000</i>
    <i name="AMIX_MAG">      1.60000000</i>
    <i name="BMIX_MAG">      1.00000000</i>
    <separator name="electronic mixer details" >
     <i type="int" name="IMIX">     4</i>
     <i type="logical" name="MIXFIRST"> F  </i>
     <i type="int" name="MAXMIX">   -45</i>
     <i name="WC">    100.00000000</i>
     <i type="int" name="INIMIX">     1</i>
     <i type="int" name="MIXPRE">     1</i>
     <i type="int" name="MREMOVE">     5</i>
    </separator>
   </separator>
   <separator name="electronic dipolcorrection" >
    <i type="logical" name="LDIPOL"> F  </i>
    <i type="logical" name="LMONO"> F  </i>
    <i type="int" name="IDIPOL">     0</i>
    <i name="EPSILON">      1.00000000</i>
    <v name="DIPOL">   -100.00000000   -100.00000000   -100.00000000</v>
    <i name="EFIELD">      0.00000000</i>
   </separator>
  </separator>
  <separator name="grids" >
   <i type="int" name="NGX">   108</i>
   <i type="int" name="NGY">   108</i>
   <i type="int" name="NGZ">   150</i>
   <i type="int" name="NGXF">   160</i>
   <i type="int" name="NGYF">   160</i>
   <i type="int" name="NGZF">   224</i>
   <i type="logical" name="ADDGRID"> F  </i>
  </separator>
  <separator name="ionic" >
   <i type="int" name="NSW">     0</i>
   <i type="int" name="IBRION">    -1</i>
   <i type="int" name="MDALGO">     0</i>
   <i type="int" name="ISIF">     2</i>
   <i name="PSTRESS">      0.00000000</i>
   <i name="EDIFFG">     -0.01000000</i>
   <i type="int" name="NFREE">     0</i>
   <i name="POTIM">      0.30000000</i>
   <i name="SMASS">     -3.00000000</i>
   <i name="SCALEE">      1.00000000</i>
  </separator>
  <separator name="ionic md" >
   <i name="TEBEG">      0.00010000</i>
   <i name="TEEND">      0.00010000</i>
   <i type="int" name="NBLOCK">     1</i>
   <i type="int" name="KBLOCK">     1</i>
   <i type="int" name="NPACO">   256</i>
   <i name="APACO">     16.00000000</i>
  </separator>
  <separator name="symmetry" >
   <i type="int" name="ISYM">     2</i>
   <i name="SYMPREC">      0.00001000</i>
  </separator>
  <separator name="dos" >
   <i type="int" name="LORBIT">     0</i>
   <v name="RWIGS">     -1.00000000     -1.00000000     -1.00000000     -1.00000000</v>
   <i type="int" name="NEDOS">   301</i>
   <i name="EMIN">     10.00000000</i>
   <i name="EMAX">    -10.00000000</i>
   <i name="EFERMI">      0.00000000</i>
  </separator>
  <separator name="writing" >
   <i type="int" name="NWRITE">     0</i>
   <i type="logical" name="LWAVE"> F  </i>
   <i type="logical" name="LDOWNSAMPLE"> F  </i>
   <i type="logical" name="LCHARG"> F  </i>
   <i type="logical" name="LPARD"> F  </i>
   <i type="logical" name="LVTOT"> F  </i>
   <i type="logical" name="LVHAR"> F  </i>
   <i type="logical" name="LELF"> F  </i>
   <i type="logical" name="LOPTICS"> F  </i>
   <v name="STM">      0.00000000      0.00000000      0.00000000      0.00000000      0.00000000      0.00000000      0.00000000</v>
  </separator>
  <separator name="performance" >
   <i type="int" name="NPAR">    16</i>
   <i type="int" name="NSIM">     4</i>
   <i type="int" name="NBLK">    -1</i>
   <i type="logical" name="LPLANE"> T  </i>
   <i type="logical" name="LSCALAPACK"> T  </i>
   <i type="logical" name="LSCAAWARE"> F  </i>
   <i type="logical" name="LSCALU"> F  </i>
   <i type="logical" name="LASYNC"> F  </i>
   <i type="logical" name="LORBITALREAL"> F  </i>
  </separator>
  <separator name="miscellaneous" >
   <i type="int" name="IDIOT">     3</i>
   <i type="int" name="ISPECIAL">     0</i>
   <i type="logical" name="LMUSIC"> F  </i>
   <v name="POMASS">     16.00000000      1.00000000     12.01100000     14.00100000</v>
   <v name="DARWINR">      0.00000000      0.00000000      0.00000000      0.00000000</v>
   <v name="DARWINV">      1.00000000      1.00000000      1.00000000      1.00000000</v>
   <i type="logical" name="LCORR"> T  </i>
  </separator>
  <i type="logical" name="GGA_COMPAT"> T  </i>
  <i type="logical" name="LBERRY"> F  </i>
  <i type="int" name="ICORELEVEL">     0</i>
  <i type="logical" name="LDAU"> F  </i>
  <i type="int" name="I_CONSTRAINED_M">     0</i>
  <separator name="electronic exchange-correlation" >
   <i type="string" name="GGA">PE</i>
   <i type="int" name="VOSKOWN">     0</i>
   <i type="logical" name="LHFCALC"> F  </i>
   <i type="string" name="PRECFOCK"></i>
   <i type="logical" name="LSYMGRAD"> F  </i>
   <i type="logical" name="LHFONE"> F  </i>
   <i type="logical" name="LRHFCALC"> F  </i>
   <i type="logical" name="LTHOMAS"> F  </i>
   <i type="logical" name="LMODELHF"> F  </i>
   <i name="ENCUT4O">     -1.00000000</i>
   <i type="int" name="EXXOEP">     0</i>
   <i type="int" name="FOURORBIT">     0</i>
   <i name="AEXX">      0.00000000</i>
   <i name="HFALPHA">      0.00000000</i>
   <i name="MCALPHA">      0.00000000</i>
   <i name="ALDAX">      1.00000000</i>
   <i name="AGGAX">      1.00000000</i>
   <i name="ALDAC">      1.00000000</i>
   <i name="AGGAC">      1.00000000</i>
   <i type="int" name="NKREDX">     1</i>
   <i type="int" name="NKREDY">     1</i>
   <i type="int" name="NKREDZ">     1</i>
   <i type="logical" name="SHIFTRED"> F  </i>
   <i type="logical" name="ODDONLY"> F  </i>
   <i type="logical" name="EVENONLY"> F  </i>
   <i type="int" name="LMAXFOCK">     0</i>
   <i type="int" name="NMAXFOCKAE">     0</i>
   <i type="logical" name="LFOCKAEDFT"> F  </i>
   <i name="HFSCREEN">      0.00000000</i>
   <i name="HFSCREENC">      0.00000000</i>
   <i type="int" name="NBANDSGWLOW">     0</i>
  </separator>
  <separator name="vdW DFT" >
   <i type="logical" name="LUSE_VDW"> F  </i>
   <i name="Zab_VDW">     -0.84910000</i>
   <i name="PARAM1">      0.12340000</i>
   <i name="PARAM2">      1.00000000</i>
   <i name="PARAM3">      0.00000000</i>
  </separator>
  <separator name="model GW" >
   <i type="int" name="MODEL_GW">     0</i>
   <i name="MODEL_EPS0">     44.46328616</i>
   <i name="MODEL_ALPHA">      1.00000000</i>
  </separator>
  <separator name="linear response parameters" >
   <i type="logical" name="LEPSILON"> F  </i>
   <i type="logical" name="LRPA"> F  </i>
   <i type="logical" name="LNABLA"> F  </i>
   <i type="logical" name="LVEL"> F  </i>
   <i type="int" name="KINTER">     0</i>
   <i name="CSHIFT">      0.10000000</i>
   <i name="OMEGAMAX">     -1.00000000</i>
   <i name="DEG_THRESHOLD">      0.00200000</i>
   <i name="RTIME">     -0.10000000</i>
   <i name="WPLASMAI">      0.00000000</i>
   <v name="DFIELD">      0.00000000      0.00000000      0.00000000</v>
   <v name="WPLASMA">      0.00000000      0.00000000      0.00000000      0.00000000      0.00000000      0.00000000      0.00000000      0.00000000      0.00000000</v>
  </separator>
  <separator name="orbital magnetization" >
   <i type="logical" name="NUCIND"> F  </i>
   <v name="MAGPOS">      0.00000000      0.00000000      0.00000000</v>
   <i type="logical" name="LNICSALL"> T  </i>
   <i type="logical" name="ORBITALMAG"> F  </i>
   <i type="logical" name="LMAGBLOCH"> F  </i>
   <i type="logical" name="LCHIMAG"> F  </i>
   <i type="logical" name="LGAUGE"> T  </i>
   <i type="int" name="MAGATOM">     0</i>
   <v name="MAGDIPOL">      0.00000000      0.00000000      0.00000000</v>
   <v name="AVECCONST">      0.00000000      0.00000000      0.00000000</v>
  </separator>
  <separator name="response functions" >
   <i type="logical" name="LADDER"> F  </i>
   <i type="logical" name="LRPAFORCE"> F  </i>
   <i type="logical" name="LFXC"> F  </i>
   <i type="logical" name="LHARTREE"> T  </i>
   <i type="int" name="IBSE">     0</i>
   <v type="int" name="KPOINT">    -1     0     0     0</v>
   <i type="logical" name="LTCTE"> F  </i>
   <i type="logical" name="LTETE"> F  </i>
   <i type="logical" name="LTRIPLET"> F  </i>
   <i type="logical" name="LFXCEPS"> F  </i>
   <i type="logical" name="LFXHEG"> F  </i>
   <i type="int" name="NATURALO">     2</i>
   <i type="logical" name="L2ORDER"> F  </i>
   <i type="logical" name="LMP2LT"> F  </i>
   <i type="logical" name="LUSEW"> F  </i>
   <i name="ENCUTGW">     -2.00000000</i>
   <i name="ENCUTGWSOFT">     -2.00000000</i>
   <i name="ENCUTLF">     -1.00000000</i>
   <i type="int" name="LMAXMP2">    -1</i>
   <i name="SCISSOR">      0.00000000</i>
   <i type="int" name="NOMEGA">     0</i>
   <i type="int" name="NOMEGAR">     0</i>
   <i type="int" name="NBANDSGW">    -1</i>
   <i type="int" name="NBANDSO">    -1</i>
   <i type="int" name="NBANDSV">    -1</i>
   <i type="int" name="NELM">   200</i>
   <i type="int" name="NELMHF">     1</i>
   <i type="int" name="DIM">     3</i>
   <i type="int" name="ANTIRES">     0</i>
   <i name="OMEGAMAX">    -30.00000000</i>
   <i name="OMEGAMIN">    -30.00000000</i>
   <i name="OMEGATL">   -200.00000000</i>
   <i type="int" name="OMEGAGRID">   140</i>
   <i name="CSHIFT">     -0.10000000</i>
   <i type="logical" name="SELFENERGY"> F  </i>
   <i type="logical" name="LSPECTRAL"> F  </i>
   <i type="logical" name="LSPECTRALGW"> F  </i>
   <i type="logical" name="LSINGLES"> F  </i>
   <i type="logical" name="LFERMIGW"> F  </i>
   <i type="logical" name="ODDONLYGW"> F  </i>
   <i type="logical" name="EVENONLYGW"> F  </i>
   <i type="int" name="NKREDLFX">     1</i>
   <i type="int" name="NKREDLFY">     1</i>
   <i type="int" name="NKREDLFZ">     1</i>
   <i type="int" name="MAXMEM">  2800</i>
   <i type="int" name="TELESCOPE">     0</i>
   <i type="int" name="TAUPAR">     1</i>
   <i type="int" name="OMEGAPAR">    -1</i>
   <i name="LAMBDA">      1.00000000</i>
  </separator>
  <separator name="External order field" >
   <i name="OFIELD_KAPPA">      0.00000000</i>
   <v name="OFIELD_K">      0.00000000      0.00000000      0.00000000</v>
   <i name="OFIELD_Q6_NEAR">      0.00000000</i>
   <i name="OFIELD_Q6_FAR">      0.00000000</i>
   <i name="OFIELD_A">      0.00000000</i>
  </separator>
  <separator name="solvation model" >
   <i type="logical" name="LSOL"> F  </i>
  </separator>
 </parameters>
 <atominfo>
  <atoms>      48 </atoms>
  <types>       4 </types>
  <array name="atoms" >
   <dimension dim="1">ion</dimension>
   <field type="string">element</field>
   <field type="int">atomtype</field>
   <set>
    <rc><c>O </c><c>   1</c></rc>
    <rc><c>O </c><c>   1</c></rc>
    <rc><c>O </c><c>   1</c></rc>
    <rc><c>H </c><c>   2</c></rc>
    <rc><c>H </c><c>   2</c></rc>
    <rc><c>H </c><c>   2</c></rc>
    <rc><c>H </c><c>   2</c></rc>
    <rc><c>H </c><c>   2</c></rc>
    <rc><c>H </c><c>   2</c></rc>
    <rc><c>H </c><c>   2</c></rc>
    <rc><c>H </c><c>   2</c></rc>
    <rc><c>H </c><c>   2</c></rc>
    <rc><c>C </c><c>   3</c></rc>
    <rc><c>C </c><c>   3</c></rc>
    <rc><c>C </c><c>   3</c></rc>
    <rc><c>C </c><c>   3</c></rc>
    <rc><c>C </c><c>   3</c></rc>
    <rc><c>C </c><c>   3</c></rc>
    <rc><c>C </c><c>   3</c></rc>
    <rc><c>C </c><c>   3</c></rc>
    <rc><c>C </c><c>   3</c></rc>
    <rc><c>C </c><c>   3</c></rc>
    <rc><c>C </c><c>   3</c></rc>
    <rc><c>C </c><c>   3</c></rc>
    <rc><c>C </c><c>   3</c></rc>
    <rc><c>C </c><c>   3</c></rc>
    <rc><c>C </c><c>   3</c></rc>
    <rc><c>C </c><c>   3</c></rc>
    <rc><c>C </c><c>   3</c></rc>
    <rc><c>C </c><c>   3</c></rc>
    <rc><c>C </c><c>   3</c></rc>
    <rc><c>C </c><c>   3</c></rc>
    <rc><c>C </c><c>   3</c></rc>
    <rc><c>N </c><c>   4</c></rc>
    <rc><c>N </c><c>   4</c></rc>
    <rc><c>N </c><c>   4</c></rc>
    <rc><c>N </c><c>   4</c></rc>
    <rc><c>N </c><c>   4</c></rc>
    <rc><c>N </c><c>   4</c></rc>
    <rc><c>N </c><c>   4</c></rc>
    <rc><c>N </c><c>   4</c></rc>
    <rc><c>N </c><c>   4</c></rc>
    <rc><c>N </c><c>   4</c></rc>
    <rc><c>N </c><c>   4</c></rc>
    <rc><c>N </c><c>   4</c></rc>
    <rc><c>N </c><c>   4</c></rc>
    <rc><c>N </c><c>   4</c></rc>
    <rc><c>N </c><c>   4</c></rc>
   </set>
  </array>
  <array name="atomtypes" >
   <dimension dim="1">type</dimension>
   <field type="int">atomspertype</field>
   <field type="string">element</field>
   <field>mass</field>
   <field>valence</field>
   <field type="string">pseudopotential</field>
   <set>
    <rc><c>   3</c><c>O </c><c>     16.00000000</c><c>      6.00000000</c><c>  PAW_PBE O 08Apr2002                   </c></rc>
    <rc><c>   9</c><c>H </c><c>      1.00000000</c><c>      1.00000000</c><c>  PAW_PBE H 15Jun2001                   </c></rc>
    <rc><c>  21</c><c>C </c><c>     12.01100000</c><c>      4.00000000</c><c>  PAW_PBE C 08Apr2002                   </c></rc>
    <rc><c>  15</c><c>N </c><c>     14.00100000</c><c>      5.00000000</c><c>  PAW_PBE N 08Apr2002                   </c></rc>
   </set>
  </array>
 </atominfo>
 <structure name="initialpos" >
  <crystal>
   <varray name="basis" >
    <v>      14.33038885       0.00659602       0.00000000 </v>
    <v>      -7.15953678      12.40761308       0.00000000 </v>
    <v>       0.00000000       0.00000000      20.00000000 </v>
   </varray>
   <i name="volume">   3557.06289251 </i>
   <varray name="rec_basis" >
    <v>       0.06976325       0.04025533       0.00000000 </v>
    <v>      -0.00003709       0.08057428       0.00000000 </v>
    <v>       0.00000000       0.00000000       0.05000000 </v>
   </varray>
  </crystal>
  <varray name="positions" >
   <v>       0.87480854       0.26650367       0.54294262 </v>
   <v>       0.37621572       0.13119400       0.54449288 </v>
   <v>       0.73777512       0.62786152       0.54386449 </v>
   <v>       0.30285449       0.40802503       0.43503175 </v>
   <v>       0.88813477       0.22520667       0.38854463 </v>
   <v>       0.84079108       0.13113814       0.45181621 </v>
   <v>       0.31877573       0.11667781       0.39055395 </v>
   <v>       0.27324463       0.16461448       0.45412768 </v>
   <v>       0.77864369       0.68840066       0.39010412 </v>
   <v>       0.87282266       0.73287612       0.45338827 </v>
   <v>       0.08706648       0.70173160       0.43535336 </v>
   <v>       0.59577658       0.91663522       0.43442635 </v>
   <v>       0.44445290       0.56628979       0.44720425 </v>
   <v>       0.39030897       0.45351899       0.44030177 </v>
   <v>       0.38375473       0.62545389       0.44527328 </v>
   <v>       0.37863042       0.78076101       0.44544164 </v>
   <v>       0.22349149       0.62048909       0.44472377 </v>
   <v>       0.60979664       0.23693624       0.44676475 </v>
   <v>       0.60952203       0.39482332       0.44660680 </v>
   <v>       0.76752416       0.39498110       0.44655918 </v>
   <v>       0.88719750       0.45373866       0.44821564 </v>
   <v>       0.10372690       0.55981150       0.44646277 </v>
   <v>       0.94624096       0.39963280       0.45879827 </v>
   <v>       0.89628757       0.28385690       0.48308204 </v>
   <v>       0.54869635       0.11720184       0.44849781 </v>
   <v>       0.43778977       0.90058639       0.44715867 </v>
   <v>       0.43580541       0.05849618       0.45984627 </v>
   <v>       0.37075772       0.10901470       0.48467015 </v>
   <v>       0.55066692       0.45576398       0.44856571 </v>
   <v>       0.60456363       0.56874261       0.45978523 </v>
   <v>       0.72024977       0.63400313       0.48426435 </v>
   <v>       0.04515475       0.61416509       0.44018668 </v>
   <v>       0.55047297       0.95883804       0.43992168 </v>
   <v>       0.55130358       0.62319576       0.45666228 </v>
   <v>       0.43941262       0.73344900       0.44563528 </v>
   <v>       0.27576010       0.56471540       0.44432905 </v>
   <v>       0.27068633       0.72855148       0.44483310 </v>
   <v>       0.55177128       0.28685037       0.44628723 </v>
   <v>       0.71738583       0.45285078       0.44590531 </v>
   <v>       0.71773249       0.28705976       0.44644466 </v>
   <v>       0.05383033       0.45281095       0.45540765 </v>
   <v>       0.88826686       0.20927253       0.43790647 </v>
   <v>       0.38111106       0.95083393       0.45670884 </v>
   <v>       0.30342769       0.11677927       0.44001767 </v>
   <v>       0.79465625       0.70216149       0.43961344 </v>
   <v>       0.93785744       0.56095331       0.43922960 </v>
   <v>       0.60474967       0.06616256       0.43877538 </v>
   <v>       0.44357892       0.39939226       0.43919163 </v>
  </varray>
 </structure>
 <calculation>
  <scstep>
   <time name="dav">   30.93   31.14</time>
   <time name="total">   31.01   31.23</time>
   <energy>
    <i name="alphaZ">     44.23296370 </i>
    <i name="ewald">  22342.04139101 </i>
    <i name="hartreedc"> -29400.27422593 </i>
    <i name="XCdc">    703.51195999 </i>
    <i name="pawpsdc">  18294.10424838 </i>
    <i name="pawaedc"> -18335.49078059 </i>
    <i name="eentropy">     -0.00000000 </i>
    <i name="bandstr">  -2477.05351041 </i>
    <i name="atom">   8467.58676972 </i>
    <i name="e_fr_energy">   -361.34118414 </i>
    <i name="e_wo_entrp">   -361.34118414 </i>
    <i name="e_0_energy">   -361.34118414 </i>
   </energy>
  </scstep>
  <scstep>
   <time name="dav">   34.92   35.13</time>
   <time name="total">   34.92   35.14</time>
   <energy>
    <i name="e_fr_energy">   -363.57889754 </i>
    <i name="e_wo_entrp">   -363.57889754 </i>
    <i name="e_0_energy">   -363.57889754 </i>
   </energy>
  </scstep>
  <scstep>
   <time name="dav">   37.15   37.38</time>
   <time name="total">   37.15   37.38</time>
   <energy>
    <i name="e_fr_energy">   -363.62452946 </i>
    <i name="e_wo_entrp">   -363.62452946 </i>
    <i name="e_0_energy">   -363.62452946 </i>
   </energy>
  </scstep>
  <scstep>
   <time name="dav">   34.50   34.71</time>
   <time name="total">   34.50   34.72</time>
   <energy>
    <i name="e_fr_energy">   -363.62560571 </i>
    <i name="e_wo_entrp">   -363.62560571 </i>
    <i name="e_0_energy">   -363.62560571 </i>
   </energy>
  </scstep>
  <scstep>
   <time name="dav">   37.41   37.65</time>
   <time name="total">   37.42   37.66</time>
   <energy>
    <i name="e_fr_energy">   -363.62565219 </i>
    <i name="e_wo_entrp">   -363.62565219 </i>
    <i name="e_0_energy">   -363.62565219 </i>
   </energy>
  </scstep>
  <scstep>
   <time name="dav">   29.45   29.63</time>
   <time name="total">   29.45   29.64</time>
   <energy>
    <i name="alphaZ">     44.23296370 </i>
    <i name="ewald">  22342.04139101 </i>
    <i name="hartreedc"> -29400.27422593 </i>
    <i name="XCdc">    703.51195999 </i>
    <i name="pawpsdc">  18294.10424838 </i>
    <i name="pawaedc"> -18335.49078059 </i>
    <i name="eentropy">     -0.00000000 </i>
    <i name="bandstr">  -2479.33797991 </i>
    <i name="atom">   8467.58676972 </i>
    <i name="e_fr_energy">   -363.62565363 </i>
    <i name="e_wo_entrp">   -363.62565363 </i>
    <i name="e_0_energy">   -363.62565363 </i>
   </energy>
  </scstep>
  <structure>
   <crystal>
    <varray name="basis" >
     <v>      14.33038885       0.00659602       0.00000000 </v>
     <v>      -7.15953678      12.40761308       0.00000000 </v>
     <v>       0.00000000       0.00000000      20.00000000 </v>
    </varray>
    <i name="volume">   3557.06289251 </i>
    <varray name="rec_basis" >
     <v>       0.06976325       0.04025533       0.00000000 </v>
     <v>      -0.00003709       0.08057428       0.00000000 </v>
     <v>       0.00000000       0.00000000       0.05000000 </v>
    </varray>
   </crystal>
   <varray name="positions" >
    <v>       0.87480854       0.26650367       0.54294262 </v>
    <v>       0.37621572       0.13119400       0.54449288 </v>
    <v>       0.73777512       0.62786152       0.54386449 </v>
    <v>       0.30285449       0.40802503       0.43503175 </v>
    <v>       0.88813477       0.22520667       0.38854463 </v>
    <v>       0.84079108       0.13113814       0.45181621 </v>
    <v>       0.31877573       0.11667781       0.39055395 </v>
    <v>       0.27324463       0.16461448       0.45412768 </v>
    <v>       0.77864369       0.68840066       0.39010412 </v>
    <v>       0.87282266       0.73287612       0.45338827 </v>
    <v>       0.08706648       0.70173160       0.43535336 </v>
    <v>       0.59577658       0.91663522       0.43442635 </v>
    <v>       0.44445290       0.56628979       0.44720425 </v>
    <v>       0.39030897       0.45351899       0.44030177 </v>
    <v>       0.38375473       0.62545389       0.44527328 </v>
    <v>       0.37863042       0.78076101       0.44544164 </v>
    <v>       0.22349149       0.62048909       0.44472377 </v>
    <v>       0.60979664       0.23693624       0.44676475 </v>
    <v>       0.60952203       0.39482332       0.44660680 </v>
    <v>       0.76752416       0.39498110       0.44655918 </v>
    <v>       0.88719750       0.45373866       0.44821564 </v>
    <v>       0.10372690       0.55981150       0.44646277 </v>
    <v>       0.94624096       0.39963280       0.45879827 </v>
    <v>       0.89628757       0.28385690       0.48308204 </v>
    <v>       0.54869635       0.11720184       0.44849781 </v>
    <v>       0.43778977       0.90058639       0.44715867 </v>
    <v>       0.43580541       0.05849618       0.45984627 </v>
    <v>       0.37075772       0.10901470       0.48467015 </v>
    <v>       0.55066692       0.45576398       0.44856571 </v>
    <v>       0.60456363       0.56874261       0.45978523 </v>
    <v>       0.72024977       0.63400313       0.48426435 </v>
    <v>       0.04515475       0.61416509       0.44018668 </v>
    <v>       0.55047297       0.95883804       0.43992168 </v>
    <v>       0.55130358       0.62319576       0.45666228 </v>
    <v>       0.43941262       0.73344900       0.44563528 </v>
    <v>       0.27576010       0.56471540       0.44432905 </v>
    <v>       0.27068633       0.72855148       0.44483310 </v>
    <v>       0.55177128       0.28685037       0.44628723 </v>
    <v>       0.71738583       0.45285078       0.44590531 </v>
    <v>       0.71773249       0.28705976       0.44644466 </v>
    <v>       0.05383033       0.45281095       0.45540765 </v>
    <v>       0.88826686       0.20927253       0.43790647 </v>
    <v>       0.38111106       0.95083393       0.45670884 </v>
    <v>       0.30342769       0.11677927       0.44001767 </v>
    <v>       0.79465625       0.70216149       0.43961344 </v>
    <v>       0.93785744       0.56095331       0.43922960 </v>
    <v>       0.60474967       0.06616256       0.43877538 </v>
    <v>       0.44357892       0.39939226       0.43919163 </v>
   </varray>
  </structure>
  <varray name="forces" >
   <v>      -0.00162563       0.00094186       0.00350729 </v>
   <v>       0.00249180      -0.00042003       0.00268432 </v>
   <v>      -0.00127048       0.00093122      -0.00409452 </v>
   <v>      -0.00565255      -0.00220570      -0.00326051 </v>
   <v>       0.00110581      -0.00125586       0.00188506 </v>
   <v>       0.00244372       0.00166408       0.00179457 </v>
   <v>      -0.00332185      -0.00265992       0.00074895 </v>
   <v>      -0.00332174      -0.00257308       0.00694934 </v>
   <v>       0.00049891       0.00059738      -0.00124375 </v>
   <v>       0.00249842       0.00401168       0.00026613 </v>
   <v>       0.00013004       0.00195890      -0.00509267 </v>
   <v>      -0.00013528      -0.00159252      -0.00280301 </v>
   <v>       0.00521547       0.00028086       0.00065575 </v>
   <v>       0.00031515      -0.00050275      -0.00042518 </v>
   <v>       0.00069082       0.01501904      -0.00376987 </v>
   <v>       0.01393226       0.00410956      -0.00182621 </v>
   <v>      -0.00901667      -0.00414347      -0.00000861 </v>
   <v>      -0.01568668       0.00496968      -0.00195871 </v>
   <v>      -0.00591543      -0.01343922       0.00241142 </v>
   <v>       0.00453839       0.00700242      -0.00105230 </v>
   <v>       0.00208882       0.00606214       0.00013372 </v>
   <v>      -0.00144873      -0.00204447      -0.00230665 </v>
   <v>       0.00360728      -0.00386338       0.00131887 </v>
   <v>       0.00270867      -0.00623446      -0.00041477 </v>
   <v>       0.00096033      -0.00273510       0.00201433 </v>
   <v>       0.00286334       0.00044297      -0.00109110 </v>
   <v>       0.00194760      -0.00190161       0.00349876 </v>
   <v>      -0.00156380       0.00460033       0.00581602 </v>
   <v>       0.00021808       0.00281060      -0.00182831 </v>
   <v>      -0.00058637      -0.00279061      -0.00360059 </v>
   <v>       0.00110218       0.00342333       0.00436271 </v>
   <v>      -0.00168889       0.00071464      -0.00215163 </v>
   <v>       0.00139179      -0.00299272      -0.00206900 </v>
   <v>      -0.00119901       0.00211007      -0.00608119 </v>
   <v>      -0.01069373      -0.00828583       0.00037202 </v>
   <v>       0.00244177      -0.00327473      -0.00011634 </v>
   <v>      -0.00063851       0.00017692      -0.00064523 </v>
   <v>       0.01325452       0.01032382       0.00083169 </v>
   <v>      -0.00644279       0.00009603      -0.00021765 </v>
   <v>       0.00620396      -0.00724635      -0.00010307 </v>
   <v>       0.00157404       0.00056524       0.00225217 </v>
   <v>       0.00036803      -0.00222627       0.00531726 </v>
   <v>      -0.00305006       0.00501135      -0.00116694 </v>
   <v>      -0.00221838       0.00040133       0.00500905 </v>
   <v>      -0.00133810       0.00041676      -0.00186176 </v>
   <v>      -0.00159599      -0.00047739      -0.00111669 </v>
   <v>       0.00111115      -0.00279349      -0.00023391 </v>
   <v>       0.00270830      -0.00298327      -0.00128928 </v>
  </varray>
  <varray name="stress" >
   <v>       0.02590993       0.01057949       0.00157930 </v>
   <v>       0.01057949       0.00626199       0.00338442 </v>
   <v>       0.00157929       0.00338441      -0.36428800 </v>
  </varray>
  <energy>
   <i name="e_fr_energy">   -364.80349539 </i>
   <i name="e_wo_entrp">   -364.80349539 </i>
   <i name="e_0_energy">     -0.00000000 </i>
  </energy>
  <time name="totalsc">  228.38  230.40</time>
  <eigenvalues>
   <array>
    <dimension dim="1">band</dimension>
    <dimension dim="2">kpoint</dimension>
    <dimension dim="3">spin</dimension>
    <field>eigene</field>
    <field>occ</field>
    <set>
     <set comment="spin 1">
      <set comment="kpoint 1">
       <r>  -25.8114    1.0000 </r>
       <r>  -25.7259    1.0000 </r>
       <r>  -25.4370    1.0000 </r>
       <r>  -25.4362    1.0000 </r>
       <r>  -25.3845    1.0000 </r>
       <r>  -24.6309    1.0000 </r>
       <r>  -24.6284    1.0000 </r>
       <r>  -24.4554    1.0000 </r>
       <r>  -23.0649    1.0000 </r>
       <r>  -23.0635    1.0000 </r>
       <r>  -22.6945    1.0000 </r>
       <r>  -22.5417    1.0000 </r>
       <r>  -22.5404    1.0000 </r>
       <r>  -22.3802    1.0000 </r>
       <r>  -22.3783    1.0000 </r>
       <r>  -22.0943    1.0000 </r>
       <r>  -22.0688    1.0000 </r>
       <r>  -22.0663    1.0000 </r>
       <r>  -19.7926    1.0000 </r>
       <r>  -19.7893    1.0000 </r>
       <r>  -19.6145    1.0000 </r>
       <r>  -18.3048    1.0000 </r>
       <r>  -18.3014    1.0000 </r>
       <r>  -17.0758    1.0000 </r>
       <r>  -16.8427    1.0000 </r>
       <r>  -16.7618    1.0000 </r>
       <r>  -16.7590    1.0000 </r>
       <r>  -16.3893    1.0000 </r>
       <r>  -16.3867    1.0000 </r>
       <r>  -15.0874    1.0000 </r>
       <r>  -15.0849    1.0000 </r>
       <r>  -14.7240    1.0000 </r>
       <r>  -14.3817    1.0000 </r>
       <r>  -14.1501    1.0000 </r>
       <r>  -14.1448    1.0000 </r>
       <r>  -13.5240    1.0000 </r>
       <r>  -13.3850    1.0000 </r>
       <r>  -13.2034    1.0000 </r>
       <r>  -13.0219    1.0000 </r>
       <r>  -13.0132    1.0000 </r>
       <r>  -12.8583    1.0000 </r>
       <r>  -12.8523    1.0000 </r>
       <r>  -12.6097    1.0000 </r>
       <r>  -12.1575    1.0000 </r>
       <r>  -12.0238    1.0000 </r>
       <r>  -12.0213    1.0000 </r>
       <r>  -11.7051    1.0000 </r>
       <r>  -11.5624    1.0000 </r>
       <r>  -11.5610    1.0000 </r>
       <r>  -11.4866    1.0000 </r>
       <r>  -11.2307    1.0000 </r>
       <r>  -10.8145    1.0000 </r>
       <r>  -10.8066    1.0000 </r>
       <r>  -10.4438    1.0000 </r>
       <r>  -10.4405    1.0000 </r>
       <r>  -10.4282    1.0000 </r>
       <r>  -10.0390    1.0000 </r>
       <r>   -9.8192    1.0000 </r>
       <r>   -9.8173    1.0000 </r>
       <r>   -9.6915    1.0000 </r>
       <r>   -9.3181    1.0000 </r>
       <r>   -9.3133    1.0000 </r>
       <r>   -9.3051    1.0000 </r>
       <r>   -9.1890    1.0000 </r>
       <r>   -9.1858    1.0000 </r>
       <r>   -9.1090    1.0000 </r>
       <r>   -9.1053    1.0000 </r>
       <r>   -8.9036    1.0000 </r>
       <r>   -8.3909    1.0000 </r>
       <r>   -8.1740    1.0000 </r>
       <r>   -8.1693    1.0000 </r>
       <r>   -8.1678    1.0000 </r>
       <r>   -7.9824    1.0000 </r>
       <r>   -7.9790    1.0000 </r>
       <r>   -7.1646    1.0000 </r>
       <r>   -7.1576    1.0000 </r>
       <r>   -6.9964    1.0000 </r>
       <r>   -6.8063    1.0000 </r>
       <r>   -6.5836    1.0000 </r>
       <r>   -6.5800    1.0000 </r>
       <r>   -6.3408    1.0000 </r>
       <r>   -6.3360    1.0000 </r>
       <r>   -6.0998    1.0000 </r>
       <r>   -6.0742    1.0000 </r>
       <r>   -6.0691    1.0000 </r>
       <r>   -5.9497    1.0000 </r>
       <r>   -5.9447    1.0000 </r>
       <r>   -5.9265    1.0000 </r>
       <r>   -5.7444    1.0000 </r>
       <r>   -5.7422    1.0000 </r>
       <r>   -5.1234    1.0000 </r>
       <r>   -5.1130    1.0000 </r>
       <r>   -5.1110    1.0000 </r>
       <r>   -3.6689    0.0000 </r>
       <r>   -3.6672    0.0000 </r>
       <r>   -2.5451    0.0000 </r>
       <r>   -2.1598    0.0000 </r>
       <r>   -2.1550    0.0000 </r>
       <r>   -2.1010    0.0000 </r>
       <r>   -2.0986    0.0000 </r>
       <r>   -2.0009    0.0000 </r>
       <r>   -0.5522    0.0000 </r>
       <r>   -0.3016    0.0000 </r>
       <r>   -0.2994    0.0000 </r>
       <r>   -0.2116    0.0000 </r>
       <r>    0.0796    0.0000 </r>
       <r>    0.0839    0.0000 </r>
       <r>    0.3432    0.0000 </r>
       <r>    0.3482    0.0000 </r>
       <r>    0.3828    0.0000 </r>
       <r>    0.4907    0.0000 </r>
       <r>    0.6163    0.0000 </r>
       <r>    0.6194    0.0000 </r>
       <r>    0.6223    0.0000 </r>
       <r>    0.8299    0.0000 </r>
       <r>    1.0302    0.0000 </r>
       <r>    1.4160    0.0000 </r>
       <r>    1.4174    0.0000 </r>
       <r>    1.4850    0.0000 </r>
       <r>    1.6813    0.0000 </r>
       <r>    1.7537    0.0000 </r>
       <r>    1.7559    0.0000 </r>
       <r>    1.8558    0.0000 </r>
       <r>    1.9353    0.0000 </r>
       <r>    1.9405    0.0000 </r>
       <r>    1.9719    0.0000 </r>
       <r>    1.9741    0.0000 </r>
       <r>    2.0015    0.0000 </r>
      </set>
      <set comment="kpoint 2">
       <r>  -25.8113    1.0000 </r>
       <r>  -25.7260    1.0000 </r>
       <r>  -25.4370    1.0000 </r>
       <r>  -25.4362    1.0000 </r>
       <r>  -25.3845    1.0000 </r>
       <r>  -24.6308    1.0000 </r>
       <r>  -24.6282    1.0000 </r>
       <r>  -24.4557    1.0000 </r>
       <r>  -23.0647    1.0000 </r>
       <r>  -23.0632    1.0000 </r>
       <r>  -22.6956    1.0000 </r>
       <r>  -22.5416    1.0000 </r>
       <r>  -22.5398    1.0000 </r>
       <r>  -22.3801    1.0000 </r>
       <r>  -22.3783    1.0000 </r>
       <r>  -22.0943    1.0000 </r>
       <r>  -22.0688    1.0000 </r>
       <r>  -22.0664    1.0000 </r>
       <r>  -19.7927    1.0000 </r>
       <r>  -19.7892    1.0000 </r>
       <r>  -19.6150    1.0000 </r>
       <r>  -18.3045    1.0000 </r>
       <r>  -18.3000    1.0000 </r>
       <r>  -17.0814    1.0000 </r>
       <r>  -16.8445    1.0000 </r>
       <r>  -16.7622    1.0000 </r>
       <r>  -16.7564    1.0000 </r>
       <r>  -16.3877    1.0000 </r>
       <r>  -16.3830    1.0000 </r>
       <r>  -15.0876    1.0000 </r>
       <r>  -15.0867    1.0000 </r>
       <r>  -14.7236    1.0000 </r>
       <r>  -14.3809    1.0000 </r>
       <r>  -14.1500    1.0000 </r>
       <r>  -14.1456    1.0000 </r>
       <r>  -13.5238    1.0000 </r>
       <r>  -13.3854    1.0000 </r>
       <r>  -13.2074    1.0000 </r>
       <r>  -13.0220    1.0000 </r>
       <r>  -13.0117    1.0000 </r>
       <r>  -12.8580    1.0000 </r>
       <r>  -12.8493    1.0000 </r>
       <r>  -12.6096    1.0000 </r>
       <r>  -12.1582    1.0000 </r>
       <r>  -12.0232    1.0000 </r>
       <r>  -12.0204    1.0000 </r>
       <r>  -11.7050    1.0000 </r>
       <r>  -11.5635    1.0000 </r>
       <r>  -11.5612    1.0000 </r>
       <r>  -11.4859    1.0000 </r>
       <r>  -11.2308    1.0000 </r>
       <r>  -10.8147    1.0000 </r>
       <r>  -10.8063    1.0000 </r>
       <r>  -10.4617    1.0000 </r>
       <r>  -10.4407    1.0000 </r>
       <r>  -10.4109    1.0000 </r>
       <r>  -10.0399    1.0000 </r>
       <r>   -9.8191    1.0000 </r>
       <r>   -9.8175    1.0000 </r>
       <r>   -9.6915    1.0000 </r>
       <r>   -9.3179    1.0000 </r>
       <r>   -9.3131    1.0000 </r>
       <r>   -9.3049    1.0000 </r>
       <r>   -9.1888    1.0000 </r>
       <r>   -9.1849    1.0000 </r>
       <r>   -9.1090    1.0000 </r>
       <r>   -9.1052    1.0000 </r>
       <r>   -8.9036    1.0000 </r>
       <r>   -8.3909    1.0000 </r>
       <r>   -8.1891    1.0000 </r>
       <r>   -8.1697    1.0000 </r>
       <r>   -8.1536    1.0000 </r>
       <r>   -7.9823    1.0000 </r>
       <r>   -7.9789    1.0000 </r>
       <r>   -7.1647    1.0000 </r>
       <r>   -7.1574    1.0000 </r>
       <r>   -6.9966    1.0000 </r>
       <r>   -6.8059    1.0000 </r>
       <r>   -6.5835    1.0000 </r>
       <r>   -6.5802    1.0000 </r>
       <r>   -6.3405    1.0000 </r>
       <r>   -6.3358    1.0000 </r>
       <r>   -6.1006    1.0000 </r>
       <r>   -6.0743    1.0000 </r>
       <r>   -6.0685    1.0000 </r>
       <r>   -5.9505    1.0000 </r>
       <r>   -5.9452    1.0000 </r>
       <r>   -5.9253    1.0000 </r>
       <r>   -5.7443    1.0000 </r>
       <r>   -5.7423    1.0000 </r>
       <r>   -5.1234    1.0000 </r>
       <r>   -5.1130    1.0000 </r>
       <r>   -5.1110    1.0000 </r>
       <r>   -3.6684    0.0000 </r>
       <r>   -3.6665    0.0000 </r>
       <r>   -2.5506    0.0000 </r>
       <r>   -2.1636    0.0000 </r>
       <r>   -2.1576    0.0000 </r>
       <r>   -2.1009    0.0000 </r>
       <r>   -2.0946    0.0000 </r>
       <r>   -1.9927    0.0000 </r>
       <r>   -0.5518    0.0000 </r>
       <r>   -0.3016    0.0000 </r>
       <r>   -0.3004    0.0000 </r>
       <r>   -0.2113    0.0000 </r>
       <r>    0.0778    0.0000 </r>
       <r>    0.0795    0.0000 </r>
       <r>    0.3330    0.0000 </r>
       <r>    0.3454    0.0000 </r>
       <r>    0.3927    0.0000 </r>
       <r>    0.4880    0.0000 </r>
       <r>    0.6162    0.0000 </r>
       <r>    0.6234    0.0000 </r>
       <r>    0.6320    0.0000 </r>
       <r>    0.8319    0.0000 </r>
       <r>    1.0309    0.0000 </r>
       <r>    1.4105    0.0000 </r>
       <r>    1.4152    0.0000 </r>
       <r>    1.4895    0.0000 </r>
       <r>    1.6738    0.0000 </r>
       <r>    1.7540    0.0000 </r>
       <r>    1.7631    0.0000 </r>
       <r>    1.8560    0.0000 </r>
       <r>    1.9208    0.0000 </r>
       <r>    1.9281    0.0000 </r>
       <r>    1.9615    0.0000 </r>
       <r>    1.9833    0.0000 </r>
       <r>    2.0126    0.0000 </r>
      </set>
      <set comment="kpoint 3">
       <r>  -25.8110    1.0000 </r>
       <r>  -25.7263    1.0000 </r>
       <r>  -25.4368    1.0000 </r>
       <r>  -25.4362    1.0000 </r>
       <r>  -25.3846    1.0000 </r>
       <r>  -24.6307    1.0000 </r>
       <r>  -24.6275    1.0000 </r>
       <r>  -24.4566    1.0000 </r>
       <r>  -23.0645    1.0000 </r>
       <r>  -23.0620    1.0000 </r>
       <r>  -22.6990    1.0000 </r>
       <r>  -22.5419    1.0000 </r>
       <r>  -22.5376    1.0000 </r>
       <r>  -22.3797    1.0000 </r>
       <r>  -22.3784    1.0000 </r>
       <r>  -22.0942    1.0000 </r>
       <r>  -22.0689    1.0000 </r>
       <r>  -22.0665    1.0000 </r>
       <r>  -19.7929    1.0000 </r>
       <r>  -19.7888    1.0000 </r>
       <r>  -19.6162    1.0000 </r>
       <r>  -18.3036    1.0000 </r>
       <r>  -18.2958    1.0000 </r>
       <r>  -17.0975    1.0000 </r>
       <r>  -16.8492    1.0000 </r>
       <r>  -16.7633    1.0000 </r>
       <r>  -16.7494    1.0000 </r>
       <r>  -16.3830    1.0000 </r>
       <r>  -16.3721    1.0000 </r>
       <r>  -15.0923    1.0000 </r>
       <r>  -15.0883    1.0000 </r>
       <r>  -14.7225    1.0000 </r>
       <r>  -14.3787    1.0000 </r>
       <r>  -14.1503    1.0000 </r>
       <r>  -14.1474    1.0000 </r>
       <r>  -13.5233    1.0000 </r>
       <r>  -13.3869    1.0000 </r>
       <r>  -13.2187    1.0000 </r>
       <r>  -13.0222    1.0000 </r>
       <r>  -13.0079    1.0000 </r>
       <r>  -12.8570    1.0000 </r>
       <r>  -12.8404    1.0000 </r>
       <r>  -12.6092    1.0000 </r>
       <r>  -12.1606    1.0000 </r>
       <r>  -12.0214    1.0000 </r>
       <r>  -12.0175    1.0000 </r>
       <r>  -11.7047    1.0000 </r>
       <r>  -11.5667    1.0000 </r>
       <r>  -11.5615    1.0000 </r>
       <r>  -11.4840    1.0000 </r>
       <r>  -11.2312    1.0000 </r>
       <r>  -10.8154    1.0000 </r>
       <r>  -10.8055    1.0000 </r>
       <r>  -10.4857    1.0000 </r>
       <r>  -10.4412    1.0000 </r>
       <r>  -10.3886    1.0000 </r>
       <r>  -10.0426    1.0000 </r>
       <r>   -9.8189    1.0000 </r>
       <r>   -9.8180    1.0000 </r>
       <r>   -9.6916    1.0000 </r>
       <r>   -9.3174    1.0000 </r>
       <r>   -9.3126    1.0000 </r>
       <r>   -9.3041    1.0000 </r>
       <r>   -9.1886    1.0000 </r>
       <r>   -9.1817    1.0000 </r>
       <r>   -9.1090    1.0000 </r>
       <r>   -9.1047    1.0000 </r>
       <r>   -8.9035    1.0000 </r>
       <r>   -8.3910    1.0000 </r>
       <r>   -8.2082    1.0000 </r>
       <r>   -8.1702    1.0000 </r>
       <r>   -8.1381    1.0000 </r>
       <r>   -7.9818    1.0000 </r>
       <r>   -7.9786    1.0000 </r>
       <r>   -7.1649    1.0000 </r>
       <r>   -7.1571    1.0000 </r>
       <r>   -6.9974    1.0000 </r>
       <r>   -6.8046    1.0000 </r>
       <r>   -6.5835    1.0000 </r>
       <r>   -6.5807    1.0000 </r>
       <r>   -6.3397    1.0000 </r>
       <r>   -6.3353    1.0000 </r>
       <r>   -6.1028    1.0000 </r>
       <r>   -6.0745    1.0000 </r>
       <r>   -6.0669    1.0000 </r>
       <r>   -5.9527    1.0000 </r>
       <r>   -5.9463    1.0000 </r>
       <r>   -5.9220    1.0000 </r>
       <r>   -5.7441    1.0000 </r>
       <r>   -5.7426    1.0000 </r>
       <r>   -5.1234    1.0000 </r>
       <r>   -5.1130    1.0000 </r>
       <r>   -5.1110    1.0000 </r>
       <r>   -3.6677    0.0000 </r>
       <r>   -3.6636    0.0000 </r>
       <r>   -2.5662    0.0000 </r>
       <r>   -2.1739    0.0000 </r>
       <r>   -2.1629    0.0000 </r>
       <r>   -2.1008    0.0000 </r>
       <r>   -2.0844    0.0000 </r>
       <r>   -1.9703    0.0000 </r>
       <r>   -0.5505    0.0000 </r>
       <r>   -0.3034    0.0000 </r>
       <r>   -0.3018    0.0000 </r>
       <r>   -0.2103    0.0000 </r>
       <r>    0.0608    0.0000 </r>
       <r>    0.0790    0.0000 </r>
       <r>    0.3120    0.0000 </r>
       <r>    0.3400    0.0000 </r>
       <r>    0.4094    0.0000 </r>
       <r>    0.4813    0.0000 </r>
       <r>    0.6257    0.0000 </r>
       <r>    0.6319    0.0000 </r>
       <r>    0.6526    0.0000 </r>
       <r>    0.8381    0.0000 </r>
       <r>    1.0330    0.0000 </r>
       <r>    1.3947    0.0000 </r>
       <r>    1.4113    0.0000 </r>
       <r>    1.4992    0.0000 </r>
       <r>    1.6581    0.0000 </r>
       <r>    1.7512    0.0000 </r>
       <r>    1.7804    0.0000 </r>
       <r>    1.8561    0.0000 </r>
       <r>    1.8864    0.0000 </r>
       <r>    1.9130    0.0000 </r>
       <r>    1.9461    0.0000 </r>
       <r>    1.9991    0.0000 </r>
       <r>    2.0290    0.0000 </r>
      </set>
      <set comment="kpoint 4">
       <r>  -25.8106    1.0000 </r>
       <r>  -25.7270    1.0000 </r>
       <r>  -25.4365    1.0000 </r>
       <r>  -25.4361    1.0000 </r>
       <r>  -25.3847    1.0000 </r>
       <r>  -24.6307    1.0000 </r>
       <r>  -24.6264    1.0000 </r>
       <r>  -24.4581    1.0000 </r>
       <r>  -23.0643    1.0000 </r>
       <r>  -23.0598    1.0000 </r>
       <r>  -22.7043    1.0000 </r>
       <r>  -22.5425    1.0000 </r>
       <r>  -22.5341    1.0000 </r>
       <r>  -22.3792    1.0000 </r>
       <r>  -22.3786    1.0000 </r>
       <r>  -22.0940    1.0000 </r>
       <r>  -22.0689    1.0000 </r>
       <r>  -22.0666    1.0000 </r>
       <r>  -19.7932    1.0000 </r>
       <r>  -19.7881    1.0000 </r>
       <r>  -19.6182    1.0000 </r>
       <r>  -18.3022    1.0000 </r>
       <r>  -18.2888    1.0000 </r>
       <r>  -17.1223    1.0000 </r>
       <r>  -16.8558    1.0000 </r>
       <r>  -16.7649    1.0000 </r>
       <r>  -16.7405    1.0000 </r>
       <r>  -16.3755    1.0000 </r>
       <r>  -16.3541    1.0000 </r>
       <r>  -15.1015    1.0000 </r>
       <r>  -15.0895    1.0000 </r>
       <r>  -14.7208    1.0000 </r>
       <r>  -14.3752    1.0000 </r>
       <r>  -14.1537    1.0000 </r>
       <r>  -14.1473    1.0000 </r>
       <r>  -13.5227    1.0000 </r>
       <r>  -13.3896    1.0000 </r>
       <r>  -13.2349    1.0000 </r>
       <r>  -13.0226    1.0000 </r>
       <r>  -13.0029    1.0000 </r>
       <r>  -12.8555    1.0000 </r>
       <r>  -12.8261    1.0000 </r>
       <r>  -12.6085    1.0000 </r>
       <r>  -12.1643    1.0000 </r>
       <r>  -12.0188    1.0000 </r>
       <r>  -12.0125    1.0000 </r>
       <r>  -11.7042    1.0000 </r>
       <r>  -11.5719    1.0000 </r>
       <r>  -11.5619    1.0000 </r>
       <r>  -11.4811    1.0000 </r>
       <r>  -11.2318    1.0000 </r>
       <r>  -10.8166    1.0000 </r>
       <r>  -10.8041    1.0000 </r>
       <r>  -10.5096    1.0000 </r>
       <r>  -10.4420    1.0000 </r>
       <r>  -10.3673    1.0000 </r>
       <r>  -10.0468    1.0000 </r>
       <r>   -9.8188    1.0000 </r>
       <r>   -9.8185    1.0000 </r>
       <r>   -9.6918    1.0000 </r>
       <r>   -9.3169    1.0000 </r>
       <r>   -9.3114    1.0000 </r>
       <r>   -9.3029    1.0000 </r>
       <r>   -9.1885    1.0000 </r>
       <r>   -9.1764    1.0000 </r>
       <r>   -9.1092    1.0000 </r>
       <r>   -9.1034    1.0000 </r>
       <r>   -8.9034    1.0000 </r>
       <r>   -8.3912    1.0000 </r>
       <r>   -8.2284    1.0000 </r>
       <r>   -8.1710    1.0000 </r>
       <r>   -8.1237    1.0000 </r>
       <r>   -7.9811    1.0000 </r>
       <r>   -7.9781    1.0000 </r>
       <r>   -7.1654    1.0000 </r>
       <r>   -7.1564    1.0000 </r>
       <r>   -6.9987    1.0000 </r>
       <r>   -6.8025    1.0000 </r>
       <r>   -6.5835    1.0000 </r>
       <r>   -6.5815    1.0000 </r>
       <r>   -6.3383    1.0000 </r>
       <r>   -6.3344    1.0000 </r>
       <r>   -6.1061    1.0000 </r>
       <r>   -6.0749    1.0000 </r>
       <r>   -6.0646    1.0000 </r>
       <r>   -5.9559    1.0000 </r>
       <r>   -5.9475    1.0000 </r>
       <r>   -5.9176    1.0000 </r>
       <r>   -5.7441    1.0000 </r>
       <r>   -5.7430    1.0000 </r>
       <r>   -5.1234    1.0000 </r>
       <r>   -5.1130    1.0000 </r>
       <r>   -5.1110    1.0000 </r>
       <r>   -3.6669    0.0000 </r>
       <r>   -3.6585    0.0000 </r>
       <r>   -2.5904    0.0000 </r>
       <r>   -2.1879    0.0000 </r>
       <r>   -2.1683    0.0000 </r>
       <r>   -2.1008    0.0000 </r>
       <r>   -2.0711    0.0000 </r>
       <r>   -1.9376    0.0000 </r>
       <r>   -0.5484    0.0000 </r>
       <r>   -0.3083    0.0000 </r>
       <r>   -0.3022    0.0000 </r>
       <r>   -0.2087    0.0000 </r>
       <r>    0.0349    0.0000 </r>
       <r>    0.0783    0.0000 </r>
       <r>    0.2882    0.0000 </r>
       <r>    0.3322    0.0000 </r>
       <r>    0.4228    0.0000 </r>
       <r>    0.4760    0.0000 </r>
       <r>    0.6371    0.0000 </r>
       <r>    0.6528    0.0000 </r>
       <r>    0.6781    0.0000 </r>
       <r>    0.8487    0.0000 </r>
       <r>    1.0364    0.0000 </r>
       <r>    1.3738    0.0000 </r>
       <r>    1.4054    0.0000 </r>
       <r>    1.5093    0.0000 </r>
       <r>    1.6412    0.0000 </r>
       <r>    1.7454    0.0000 </r>
       <r>    1.7952    0.0000 </r>
       <r>    1.8472    0.0000 </r>
       <r>    1.8628    0.0000 </r>
       <r>    1.8990    0.0000 </r>
       <r>    1.9303    0.0000 </r>
       <r>    2.0029    0.0000 </r>
       <r>    2.0231    0.0000 </r>
      </set>
      <set comment="kpoint 5">
       <r>  -25.8101    1.0000 </r>
       <r>  -25.7278    1.0000 </r>
       <r>  -25.4364    1.0000 </r>
       <r>  -25.4359    1.0000 </r>
       <r>  -25.3849    1.0000 </r>
       <r>  -24.6306    1.0000 </r>
       <r>  -24.6248    1.0000 </r>
       <r>  -24.4601    1.0000 </r>
       <r>  -23.0642    1.0000 </r>
       <r>  -23.0567    1.0000 </r>
       <r>  -22.7113    1.0000 </r>
       <r>  -22.5434    1.0000 </r>
       <r>  -22.5294    1.0000 </r>
       <r>  -22.3790    1.0000 </r>
       <r>  -22.3782    1.0000 </r>
       <r>  -22.0938    1.0000 </r>
       <r>  -22.0690    1.0000 </r>
       <r>  -22.0669    1.0000 </r>
       <r>  -19.7937    1.0000 </r>
       <r>  -19.7871    1.0000 </r>
       <r>  -19.6210    1.0000 </r>
       <r>  -18.3002    1.0000 </r>
       <r>  -18.2790    1.0000 </r>
       <r>  -17.1538    1.0000 </r>
       <r>  -16.8638    1.0000 </r>
       <r>  -16.7670    1.0000 </r>
       <r>  -16.7316    1.0000 </r>
       <r>  -16.3658    1.0000 </r>
       <r>  -16.3295    1.0000 </r>
       <r>  -15.1141    1.0000 </r>
       <r>  -15.0910    1.0000 </r>
       <r>  -14.7187    1.0000 </r>
       <r>  -14.3705    1.0000 </r>
       <r>  -14.1592    1.0000 </r>
       <r>  -14.1458    1.0000 </r>
       <r>  -13.5222    1.0000 </r>
       <r>  -13.3939    1.0000 </r>
       <r>  -13.2536    1.0000 </r>
       <r>  -13.0233    1.0000 </r>
       <r>  -12.9979    1.0000 </r>
       <r>  -12.8534    1.0000 </r>
       <r>  -12.8074    1.0000 </r>
       <r>  -12.6076    1.0000 </r>
       <r>  -12.1694    1.0000 </r>
       <r>  -12.0155    1.0000 </r>
       <r>  -12.0055    1.0000 </r>
       <r>  -11.7035    1.0000 </r>
       <r>  -11.5786    1.0000 </r>
       <r>  -11.5623    1.0000 </r>
       <r>  -11.4778    1.0000 </r>
       <r>  -11.2327    1.0000 </r>
       <r>  -10.8184    1.0000 </r>
       <r>  -10.8024    1.0000 </r>
       <r>  -10.5328    1.0000 </r>
       <r>  -10.4431    1.0000 </r>
       <r>  -10.3477    1.0000 </r>
       <r>  -10.0521    1.0000 </r>
       <r>   -9.8199    1.0000 </r>
       <r>   -9.8180    1.0000 </r>
       <r>   -9.6919    1.0000 </r>
       <r>   -9.3166    1.0000 </r>
       <r>   -9.3097    1.0000 </r>
       <r>   -9.3013    1.0000 </r>
       <r>   -9.1885    1.0000 </r>
       <r>   -9.1695    1.0000 </r>
       <r>   -9.1098    1.0000 </r>
       <r>   -9.1007    1.0000 </r>
       <r>   -8.9032    1.0000 </r>
       <r>   -8.3913    1.0000 </r>
       <r>   -8.2498    1.0000 </r>
       <r>   -8.1720    1.0000 </r>
       <r>   -8.1104    1.0000 </r>
       <r>   -7.9801    1.0000 </r>
       <r>   -7.9773    1.0000 </r>
       <r>   -7.1661    1.0000 </r>
       <r>   -7.1555    1.0000 </r>
       <r>   -7.0006    1.0000 </r>
       <r>   -6.7995    1.0000 </r>
       <r>   -6.5841    1.0000 </r>
       <r>   -6.5822    1.0000 </r>
       <r>   -6.3364    1.0000 </r>
       <r>   -6.3330    1.0000 </r>
       <r>   -6.1102    1.0000 </r>
       <r>   -6.0753    1.0000 </r>
       <r>   -6.0619    1.0000 </r>
       <r>   -5.9596    1.0000 </r>
       <r>   -5.9490    1.0000 </r>
       <r>   -5.9127    1.0000 </r>
       <r>   -5.7446    1.0000 </r>
       <r>   -5.7429    1.0000 </r>
       <r>   -5.1235    1.0000 </r>
       <r>   -5.1130    1.0000 </r>
       <r>   -5.1110    1.0000 </r>
       <r>   -3.6658    0.0000 </r>
       <r>   -3.6512    0.0000 </r>
       <r>   -2.6214    0.0000 </r>
       <r>   -2.2034    0.0000 </r>
       <r>   -2.1728    0.0000 </r>
       <r>   -2.1007    0.0000 </r>
       <r>   -2.0565    0.0000 </r>
       <r>   -1.8977    0.0000 </r>
       <r>   -0.5454    0.0000 </r>
       <r>   -0.3155    0.0000 </r>
       <r>   -0.3026    0.0000 </r>
       <r>   -0.2068    0.0000 </r>
       <r>    0.0028    0.0000 </r>
       <r>    0.0773    0.0000 </r>
       <r>    0.2634    0.0000 </r>
       <r>    0.3226    0.0000 </r>
       <r>    0.4256    0.0000 </r>
       <r>    0.4807    0.0000 </r>
       <r>    0.6501    0.0000 </r>
       <r>    0.6811    0.0000 </r>
       <r>    0.7075    0.0000 </r>
       <r>    0.8640    0.0000 </r>
       <r>    1.0413    0.0000 </r>
       <r>    1.3500    0.0000 </r>
       <r>    1.3981    0.0000 </r>
       <r>    1.5166    0.0000 </r>
       <r>    1.6265    0.0000 </r>
       <r>    1.7356    0.0000 </r>
       <r>    1.7862    0.0000 </r>
       <r>    1.8360    0.0000 </r>
       <r>    1.8605    0.0000 </r>
       <r>    1.8903    0.0000 </r>
       <r>    1.9142    0.0000 </r>
       <r>    1.9940    0.0000 </r>
       <r>    2.0299    0.0000 </r>
      </set>
      <set comment="kpoint 6">
       <r>  -25.8094    1.0000 </r>
       <r>  -25.7288    1.0000 </r>
       <r>  -25.4363    1.0000 </r>
       <r>  -25.4354    1.0000 </r>
       <r>  -25.3851    1.0000 </r>
       <r>  -24.6305    1.0000 </r>
       <r>  -24.6227    1.0000 </r>
       <r>  -24.4627    1.0000 </r>
       <r>  -23.0640    1.0000 </r>
       <r>  -23.0527    1.0000 </r>
       <r>  -22.7197    1.0000 </r>
       <r>  -22.5444    1.0000 </r>
       <r>  -22.5240    1.0000 </r>
       <r>  -22.3793    1.0000 </r>
       <r>  -22.3772    1.0000 </r>
       <r>  -22.0935    1.0000 </r>
       <r>  -22.0692    1.0000 </r>
       <r>  -22.0671    1.0000 </r>
       <r>  -19.7943    1.0000 </r>
       <r>  -19.7858    1.0000 </r>
       <r>  -19.6244    1.0000 </r>
       <r>  -18.2978    1.0000 </r>
       <r>  -18.2666    1.0000 </r>
       <r>  -17.1901    1.0000 </r>
       <r>  -16.8728    1.0000 </r>
       <r>  -16.7691    1.0000 </r>
       <r>  -16.7236    1.0000 </r>
       <r>  -16.3543    1.0000 </r>
       <r>  -16.2992    1.0000 </r>
       <r>  -15.1299    1.0000 </r>
       <r>  -15.0929    1.0000 </r>
       <r>  -14.7162    1.0000 </r>
       <r>  -14.3651    1.0000 </r>
       <r>  -14.1657    1.0000 </r>
       <r>  -14.1435    1.0000 </r>
       <r>  -13.5221    1.0000 </r>
       <r>  -13.4002    1.0000 </r>
       <r>  -13.2726    1.0000 </r>
       <r>  -13.0241    1.0000 </r>
       <r>  -12.9935    1.0000 </r>
       <r>  -12.8509    1.0000 </r>
       <r>  -12.7852    1.0000 </r>
       <r>  -12.6065    1.0000 </r>
       <r>  -12.1756    1.0000 </r>
       <r>  -12.0117    1.0000 </r>
       <r>  -11.9964    1.0000 </r>
       <r>  -11.7027    1.0000 </r>
       <r>  -11.5863    1.0000 </r>
       <r>  -11.5629    1.0000 </r>
       <r>  -11.4743    1.0000 </r>
       <r>  -11.2339    1.0000 </r>
       <r>  -10.8211    1.0000 </r>
       <r>  -10.8004    1.0000 </r>
       <r>  -10.5544    1.0000 </r>
       <r>  -10.4445    1.0000 </r>
       <r>  -10.3304    1.0000 </r>
       <r>  -10.0580    1.0000 </r>
       <r>   -9.8213    1.0000 </r>
       <r>   -9.8174    1.0000 </r>
       <r>   -9.6921    1.0000 </r>
       <r>   -9.3165    1.0000 </r>
       <r>   -9.3076    1.0000 </r>
       <r>   -9.2993    1.0000 </r>
       <r>   -9.1885    1.0000 </r>
       <r>   -9.1620    1.0000 </r>
       <r>   -9.1107    1.0000 </r>
       <r>   -9.0959    1.0000 </r>
       <r>   -8.9030    1.0000 </r>
       <r>   -8.3916    1.0000 </r>
       <r>   -8.2722    1.0000 </r>
       <r>   -8.1733    1.0000 </r>
       <r>   -8.0984    1.0000 </r>
       <r>   -7.9791    1.0000 </r>
       <r>   -7.9763    1.0000 </r>
       <r>   -7.1670    1.0000 </r>
       <r>   -7.1542    1.0000 </r>
       <r>   -7.0029    1.0000 </r>
       <r>   -6.7958    1.0000 </r>
       <r>   -6.5856    1.0000 </r>
       <r>   -6.5822    1.0000 </r>
       <r>   -6.3341    1.0000 </r>
       <r>   -6.3313    1.0000 </r>
       <r>   -6.1149    1.0000 </r>
       <r>   -6.0759    1.0000 </r>
       <r>   -6.0591    1.0000 </r>
       <r>   -5.9633    1.0000 </r>
       <r>   -5.9506    1.0000 </r>
       <r>   -5.9075    1.0000 </r>
       <r>   -5.7457    1.0000 </r>
       <r>   -5.7424    1.0000 </r>
       <r>   -5.1236    1.0000 </r>
       <r>   -5.1130    1.0000 </r>
       <r>   -5.1110    1.0000 </r>
       <r>   -3.6645    0.0000 </r>
       <r>   -3.6419    0.0000 </r>
       <r>   -2.6573    0.0000 </r>
       <r>   -2.2192    0.0000 </r>
       <r>   -2.1763    0.0000 </r>
       <r>   -2.1007    0.0000 </r>
       <r>   -2.0416    0.0000 </r>
       <r>   -1.8530    0.0000 </r>
       <r>   -0.5418    0.0000 </r>
       <r>   -0.3252    0.0000 </r>
       <r>   -0.3032    0.0000 </r>
       <r>   -0.2045    0.0000 </r>
       <r>   -0.0329    0.0000 </r>
       <r>    0.0759    0.0000 </r>
       <r>    0.2382    0.0000 </r>
       <r>    0.3121    0.0000 </r>
       <r>    0.4185    0.0000 </r>
       <r>    0.4958    0.0000 </r>
       <r>    0.6655    0.0000 </r>
       <r>    0.7100    0.0000 </r>
       <r>    0.7419    0.0000 </r>
       <r>    0.8841    0.0000 </r>
       <r>    1.0476    0.0000 </r>
       <r>    1.3243    0.0000 </r>
       <r>    1.3899    0.0000 </r>
       <r>    1.5185    0.0000 </r>
       <r>    1.6152    0.0000 </r>
       <r>    1.7208    0.0000 </r>
       <r>    1.7565    0.0000 </r>
       <r>    1.8343    0.0000 </r>
       <r>    1.8587    0.0000 </r>
       <r>    1.8895    0.0000 </r>
       <r>    1.8984    0.0000 </r>
       <r>    1.9852    0.0000 </r>
       <r>    2.0396    0.0000 </r>
      </set>
      <set comment="kpoint 7">
       <r>  -25.8085    1.0000 </r>
       <r>  -25.7301    1.0000 </r>
       <r>  -25.4363    1.0000 </r>
       <r>  -25.4348    1.0000 </r>
       <r>  -25.3854    1.0000 </r>
       <r>  -24.6305    1.0000 </r>
       <r>  -24.6202    1.0000 </r>
       <r>  -24.4658    1.0000 </r>
       <r>  -23.0639    1.0000 </r>
       <r>  -23.0479    1.0000 </r>
       <r>  -22.7292    1.0000 </r>
       <r>  -22.5457    1.0000 </r>
       <r>  -22.5182    1.0000 </r>
       <r>  -22.3797    1.0000 </r>
       <r>  -22.3760    1.0000 </r>
       <r>  -22.0931    1.0000 </r>
       <r>  -22.0694    1.0000 </r>
       <r>  -22.0674    1.0000 </r>
       <r>  -19.7950    1.0000 </r>
       <r>  -19.7843    1.0000 </r>
       <r>  -19.6285    1.0000 </r>
       <r>  -18.2950    1.0000 </r>
       <r>  -18.2517    1.0000 </r>
       <r>  -17.2298    1.0000 </r>
       <r>  -16.8828    1.0000 </r>
       <r>  -16.7712    1.0000 </r>
       <r>  -16.7170    1.0000 </r>
       <r>  -16.3416    1.0000 </r>
       <r>  -16.2642    1.0000 </r>
       <r>  -15.1486    1.0000 </r>
       <r>  -15.0952    1.0000 </r>
       <r>  -14.7135    1.0000 </r>
       <r>  -14.3593    1.0000 </r>
       <r>  -14.1728    1.0000 </r>
       <r>  -14.1404    1.0000 </r>
       <r>  -13.5233    1.0000 </r>
       <r>  -13.4090    1.0000 </r>
       <r>  -13.2897    1.0000 </r>
       <r>  -13.0250    1.0000 </r>
       <r>  -12.9899    1.0000 </r>
       <r>  -12.8480    1.0000 </r>
       <r>  -12.7607    1.0000 </r>
       <r>  -12.6052    1.0000 </r>
       <r>  -12.1829    1.0000 </r>
       <r>  -12.0074    1.0000 </r>
       <r>  -11.9856    1.0000 </r>
       <r>  -11.7016    1.0000 </r>
       <r>  -11.5948    1.0000 </r>
       <r>  -11.5635    1.0000 </r>
       <r>  -11.4709    1.0000 </r>
       <r>  -11.2354    1.0000 </r>
       <r>  -10.8248    1.0000 </r>
       <r>  -10.7986    1.0000 </r>
       <r>  -10.5737    1.0000 </r>
       <r>  -10.4461    1.0000 </r>
       <r>  -10.3160    1.0000 </r>
       <r>  -10.0638    1.0000 </r>
       <r>   -9.8230    1.0000 </r>
       <r>   -9.8168    1.0000 </r>
       <r>   -9.6921    1.0000 </r>
       <r>   -9.3165    1.0000 </r>
       <r>   -9.3054    1.0000 </r>
       <r>   -9.2968    1.0000 </r>
       <r>   -9.1885    1.0000 </r>
       <r>   -9.1550    1.0000 </r>
       <r>   -9.1118    1.0000 </r>
       <r>   -9.0881    1.0000 </r>
       <r>   -8.9028    1.0000 </r>
       <r>   -8.3918    1.0000 </r>
       <r>   -8.2956    1.0000 </r>
       <r>   -8.1747    1.0000 </r>
       <r>   -8.0875    1.0000 </r>
       <r>   -7.9779    1.0000 </r>
       <r>   -7.9750    1.0000 </r>
       <r>   -7.1680    1.0000 </r>
       <r>   -7.1527    1.0000 </r>
       <r>   -7.0057    1.0000 </r>
       <r>   -6.7913    1.0000 </r>
       <r>   -6.5878    1.0000 </r>
       <r>   -6.5821    1.0000 </r>
       <r>   -6.3316    1.0000 </r>
       <r>   -6.3290    1.0000 </r>
       <r>   -6.1199    1.0000 </r>
       <r>   -6.0766    1.0000 </r>
       <r>   -6.0563    1.0000 </r>
       <r>   -5.9669    1.0000 </r>
       <r>   -5.9525    1.0000 </r>
       <r>   -5.9020    1.0000 </r>
       <r>   -5.7471    1.0000 </r>
       <r>   -5.7418    1.0000 </r>
       <r>   -5.1237    1.0000 </r>
       <r>   -5.1130    1.0000 </r>
       <r>   -5.1109    1.0000 </r>
       <r>   -3.6630    0.0000 </r>
       <r>   -3.6307    0.0000 </r>
       <r>   -2.6965    0.0000 </r>
       <r>   -2.2349    0.0000 </r>
       <r>   -2.1791    0.0000 </r>
       <r>   -2.1007    0.0000 </r>
       <r>   -2.0268    0.0000 </r>
       <r>   -1.8048    0.0000 </r>
       <r>   -0.5375    0.0000 </r>
       <r>   -0.3380    0.0000 </r>
       <r>   -0.3040    0.0000 </r>
       <r>   -0.2021    0.0000 </r>
       <r>   -0.0697    0.0000 </r>
       <r>    0.0739    0.0000 </r>
       <r>    0.2130    0.0000 </r>
       <r>    0.3011    0.0000 </r>
       <r>    0.4078    0.0000 </r>
       <r>    0.5155    0.0000 </r>
       <r>    0.6829    0.0000 </r>
       <r>    0.7363    0.0000 </r>
       <r>    0.7816    0.0000 </r>
       <r>    0.9088    0.0000 </r>
       <r>    1.0553    0.0000 </r>
       <r>    1.2973    0.0000 </r>
       <r>    1.3816    0.0000 </r>
       <r>    1.5140    0.0000 </r>
       <r>    1.6070    0.0000 </r>
       <r>    1.6994    0.0000 </r>
       <r>    1.7278    0.0000 </r>
       <r>    1.8245    0.0000 </r>
       <r>    1.8548    0.0000 </r>
       <r>    1.8787    0.0000 </r>
       <r>    1.9012    0.0000 </r>
       <r>    1.9809    0.0000 </r>
       <r>    2.0390    0.0000 </r>
      </set>
      <set comment="kpoint 8">
       <r>  -25.8076    1.0000 </r>
       <r>  -25.7315    1.0000 </r>
       <r>  -25.4363    1.0000 </r>
       <r>  -25.4341    1.0000 </r>
       <r>  -25.3857    1.0000 </r>
       <r>  -24.6305    1.0000 </r>
       <r>  -24.6173    1.0000 </r>
       <r>  -24.4693    1.0000 </r>
       <r>  -23.0637    1.0000 </r>
       <r>  -23.0423    1.0000 </r>
       <r>  -22.7396    1.0000 </r>
       <r>  -22.5471    1.0000 </r>
       <r>  -22.5121    1.0000 </r>
       <r>  -22.3802    1.0000 </r>
       <r>  -22.3747    1.0000 </r>
       <r>  -22.0926    1.0000 </r>
       <r>  -22.0697    1.0000 </r>
       <r>  -22.0677    1.0000 </r>
       <r>  -19.7958    1.0000 </r>
       <r>  -19.7824    1.0000 </r>
       <r>  -19.6331    1.0000 </r>
       <r>  -18.2919    1.0000 </r>
       <r>  -18.2343    1.0000 </r>
       <r>  -17.2717    1.0000 </r>
       <r>  -16.8935    1.0000 </r>
       <r>  -16.7732    1.0000 </r>
       <r>  -16.7118    1.0000 </r>
       <r>  -16.3281    1.0000 </r>
       <r>  -16.2253    1.0000 </r>
       <r>  -15.1700    1.0000 </r>
       <r>  -15.0978    1.0000 </r>
       <r>  -14.7108    1.0000 </r>
       <r>  -14.3537    1.0000 </r>
       <r>  -14.1798    1.0000 </r>
       <r>  -14.1364    1.0000 </r>
       <r>  -13.5265    1.0000 </r>
       <r>  -13.4198    1.0000 </r>
       <r>  -13.3037    1.0000 </r>
       <r>  -13.0259    1.0000 </r>
       <r>  -12.9869    1.0000 </r>
       <r>  -12.8449    1.0000 </r>
       <r>  -12.7347    1.0000 </r>
       <r>  -12.6038    1.0000 </r>
       <r>  -12.1910    1.0000 </r>
       <r>  -12.0027    1.0000 </r>
       <r>  -11.9730    1.0000 </r>
       <r>  -11.7003    1.0000 </r>
       <r>  -11.6039    1.0000 </r>
       <r>  -11.5642    1.0000 </r>
       <r>  -11.4679    1.0000 </r>
       <r>  -11.2374    1.0000 </r>
       <r>  -10.8297    1.0000 </r>
       <r>  -10.7971    1.0000 </r>
       <r>  -10.5899    1.0000 </r>
       <r>  -10.4480    1.0000 </r>
       <r>  -10.3051    1.0000 </r>
       <r>  -10.0687    1.0000 </r>
       <r>   -9.8250    1.0000 </r>
       <r>   -9.8160    1.0000 </r>
       <r>   -9.6921    1.0000 </r>
       <r>   -9.3166    1.0000 </r>
       <r>   -9.3033    1.0000 </r>
       <r>   -9.2940    1.0000 </r>
       <r>   -9.1886    1.0000 </r>
       <r>   -9.1496    1.0000 </r>
       <r>   -9.1129    1.0000 </r>
       <r>   -9.0765    1.0000 </r>
       <r>   -8.9025    1.0000 </r>
       <r>   -8.3922    1.0000 </r>
       <r>   -8.3198    1.0000 </r>
       <r>   -8.1763    1.0000 </r>
       <r>   -8.0778    1.0000 </r>
       <r>   -7.9766    1.0000 </r>
       <r>   -7.9735    1.0000 </r>
       <r>   -7.1692    1.0000 </r>
       <r>   -7.1509    1.0000 </r>
       <r>   -7.0090    1.0000 </r>
       <r>   -6.7860    1.0000 </r>
       <r>   -6.5906    1.0000 </r>
       <r>   -6.5818    1.0000 </r>
       <r>   -6.3291    1.0000 </r>
       <r>   -6.3260    1.0000 </r>
       <r>   -6.1252    1.0000 </r>
       <r>   -6.0774    1.0000 </r>
       <r>   -6.0535    1.0000 </r>
       <r>   -5.9705    1.0000 </r>
       <r>   -5.9546    1.0000 </r>
       <r>   -5.8965    1.0000 </r>
       <r>   -5.7488    1.0000 </r>
       <r>   -5.7411    1.0000 </r>
       <r>   -5.1238    1.0000 </r>
       <r>   -5.1130    1.0000 </r>
       <r>   -5.1109    1.0000 </r>
       <r>   -3.6613    0.0000 </r>
       <r>   -3.6175    0.0000 </r>
       <r>   -2.7378    0.0000 </r>
       <r>   -2.2501    0.0000 </r>
       <r>   -2.1811    0.0000 </r>
       <r>   -2.1007    0.0000 </r>
       <r>   -2.0124    0.0000 </r>
       <r>   -1.7542    0.0000 </r>
       <r>   -0.5328    0.0000 </r>
       <r>   -0.3545    0.0000 </r>
       <r>   -0.3048    0.0000 </r>
       <r>   -0.2000    0.0000 </r>
       <r>   -0.1053    0.0000 </r>
       <r>    0.0712    0.0000 </r>
       <r>    0.1885    0.0000 </r>
       <r>    0.2902    0.0000 </r>
       <r>    0.3966    0.0000 </r>
       <r>    0.5369    0.0000 </r>
       <r>    0.7019    0.0000 </r>
       <r>    0.7599    0.0000 </r>
       <r>    0.8247    0.0000 </r>
       <r>    0.9373    0.0000 </r>
       <r>    1.0644    0.0000 </r>
       <r>    1.2698    0.0000 </r>
       <r>    1.3736    0.0000 </r>
       <r>    1.5035    0.0000 </r>
       <r>    1.5986    0.0000 </r>
       <r>    1.6717    0.0000 </r>
       <r>    1.7055    0.0000 </r>
       <r>    1.8096    0.0000 </r>
       <r>    1.8453    0.0000 </r>
       <r>    1.8655    0.0000 </r>
       <r>    1.9112    0.0000 </r>
       <r>    1.9810    0.0000 </r>
       <r>    2.0433    0.0000 </r>
      </set>
      <set comment="kpoint 9">
       <r>  -25.8065    1.0000 </r>
       <r>  -25.7330    1.0000 </r>
       <r>  -25.4363    1.0000 </r>
       <r>  -25.4333    1.0000 </r>
       <r>  -25.3861    1.0000 </r>
       <r>  -24.6305    1.0000 </r>
       <r>  -24.6139    1.0000 </r>
       <r>  -24.4733    1.0000 </r>
[...]
       <r>   -2.0009    0.0000 </r>
       <r>   -0.5522    0.0000 </r>
       <r>   -0.3016    0.0000 </r>
       <r>   -0.2994    0.0000 </r>
       <r>   -0.2116    0.0000 </r>
       <r>    0.0796    0.0000 </r>
       <r>    0.0839    0.0000 </r>
       <r>    0.3432    0.0000 </r>
       <r>    0.3482    0.0000 </r>
       <r>    0.3828    0.0000 </r>
       <r>    0.4907    0.0000 </r>
       <r>    0.6163    0.0000 </r>
       <r>    0.6194    0.0000 </r>
       <r>    0.6223    0.0000 </r>
       <r>    0.8299    0.0000 </r>
       <r>    1.0302    0.0000 </r>
       <r>    1.4160    0.0000 </r>
       <r>    1.4174    0.0000 </r>
       <r>    1.4850    0.0000 </r>
       <r>    1.6813    0.0000 </r>
       <r>    1.7537    0.0000 </r>
       <r>    1.7559    0.0000 </r>
       <r>    1.8559    0.0000 </r>
       <r>    1.9356    0.0000 </r>
       <r>    1.9406    0.0000 </r>
       <r>    1.9730    0.0000 </r>
       <r>    1.9752    0.0000 </r>
       <r>    2.0105    0.0000 </r>
      </set>
     </set>
    </set>
   </array>
  </eigenvalues>
  <separator name="orbital magnetization" >
   <v name="MAGDIPOLOUT">      0.00000000      0.00000000      0.00000000</v>
  </separator>
  <dos>
   <i name="efermi">     -5.05054758 </i>
   <total>
    <array>
     <dimension dim="1">gridpoints</dimension>
     <dimension dim="2">spin</dimension>
     <field>energy</field>
     <field>total</field>
     <field>integrated</field>
     <set>
      <set comment="spin 1">
       <r>   -27.2069     0.0000     0.0000 </r>
       <r>   -27.1046     0.0000     0.0000 </r>
       <r>   -27.0022     0.0000     0.0000 </r>
       <r>   -26.8999     0.0000     0.0000 </r>
       <r>   -26.7975     0.0000     0.0000 </r>
       <r>   -26.6952     0.0000     0.0000 </r>
       <r>   -26.5929     0.0000     0.0000 </r>
       <r>   -26.4905     0.0000     0.0000 </r>
       <r>   -26.3882     0.0000     0.0000 </r>
       <r>   -26.2858     0.0000     0.0000 </r>
       <r>   -26.1835     0.0000     0.0000 </r>
       <r>   -26.0812     0.0000     0.0000 </r>
       <r>   -25.9788     0.0000     0.0000 </r>
       <r>   -25.8765     0.0000     0.0000 </r>
       <r>   -25.7742    19.5217     1.9978 </r>
       <r>   -25.6718    19.5404     4.0000 </r>
       <r>   -25.5695     0.0000     4.0000 </r>
       <r>   -25.4671     0.0002     4.0000 </r>
       <r>   -25.3648    58.6117     9.9983 </r>
       <r>   -25.2625     0.0000    10.0000 </r>
       <r>   -25.1601     0.0000    10.0000 </r>
       <r>   -25.0578     0.0000    10.0000 </r>
       <r>   -24.9554     0.0000    10.0000 </r>
       <r>   -24.8531     0.0000    10.0000 </r>
       <r>   -24.7508     0.0000    10.0000 </r>
       <r>   -24.6484     0.1099    10.0112 </r>
       <r>   -24.5461    17.4423    14.0184 </r>
       <r>   -24.4437    14.2296    15.9896 </r>
       <r>   -24.3414     0.0000    16.0000 </r>
       <r>   -24.2391     0.0000    16.0000 </r>
       <r>   -24.1367     0.0000    16.0000 </r>
       <r>   -24.0344     0.0000    16.0000 </r>
       <r>   -23.9321     0.0000    16.0000 </r>
       <r>   -23.8297     0.0000    16.0000 </r>
       <r>   -23.7274     0.0000    16.0000 </r>
       <r>   -23.6250     0.0000    16.0000 </r>
       <r>   -23.5227     0.0000    16.0000 </r>
       <r>   -23.4204     0.0000    16.0000 </r>
       <r>   -23.3180     0.0000    16.0000 </r>
       <r>   -23.2157     0.0000    16.0000 </r>
       <r>   -23.1133     0.0000    16.0000 </r>
       <r>   -23.0110    26.6913    18.7316 </r>
       <r>   -22.9087    11.0979    20.0024 </r>
       <r>   -22.8063     9.2232    21.1773 </r>
       <r>   -22.7040     4.8757    21.7990 </r>
       <r>   -22.6017     0.0000    22.0000 </r>
       <r>   -22.4993    25.3828    24.5976 </r>
       <r>   -22.3970    17.3906    26.6131 </r>
       <r>   -22.2946    14.9824    30.0000 </r>
       <r>   -22.1923     0.0000    30.0000 </r>
       <r>   -22.0900     8.8789    30.9087 </r>
       <r>   -21.9876     3.9066    36.0000 </r>
       <r>   -21.8853     0.0000    36.0000 </r>
       <r>   -21.7829     0.0000    36.0000 </r>
       <r>   -21.6806     0.0000    36.0000 </r>
       <r>   -21.5783     0.0000    36.0000 </r>
       <r>   -21.4759     0.0000    36.0000 </r>
       <r>   -21.3736     0.0000    36.0000 </r>
       <r>   -21.2712     0.0000    36.0000 </r>
       <r>   -21.1689     0.0000    36.0000 </r>
       <r>   -21.0666     0.0000    36.0000 </r>
       <r>   -20.9642     0.0000    36.0000 </r>
       <r>   -20.8619     0.0000    36.0000 </r>
       <r>   -20.7596     0.0000    36.0000 </r>
       <r>   -20.6572     0.0000    36.0000 </r>
       <r>   -20.5549     0.0000    36.0000 </r>
       <r>   -20.4525     0.0000    36.0000 </r>
       <r>   -20.3502     0.0000    36.0000 </r>
       <r>   -20.2479     0.0000    36.0000 </r>
       <r>   -20.1455     0.0000    36.0000 </r>
       <r>   -20.0432     0.0000    36.0000 </r>
       <r>   -19.9408     0.0000    36.0000 </r>
       <r>   -19.8385     0.0000    36.0000 </r>
       <r>   -19.7362    36.1663    39.7012 </r>
       <r>   -19.6338    13.3229    41.5301 </r>
       <r>   -19.5315     0.0000    42.0000 </r>
       <r>   -19.4291     0.0000    42.0000 </r>
       <r>   -19.3268     0.0000    42.0000 </r>
       <r>   -19.2245     0.0000    42.0000 </r>
       <r>   -19.1221     0.0000    42.0000 </r>
       <r>   -19.0198     0.0000    42.0000 </r>
       <r>   -18.9175     0.0000    42.0000 </r>
       <r>   -18.8151     0.0000    42.0000 </r>
       <r>   -18.7128     0.0000    42.0000 </r>
       <r>   -18.6104     0.0000    42.0000 </r>
       <r>   -18.5081     0.0000    42.0000 </r>
       <r>   -18.4058     0.0000    42.0000 </r>
       <r>   -18.3034     2.2267    42.2279 </r>
       <r>   -18.2011    15.9970    44.5705 </r>
       <r>   -18.0987     1.8869    44.8264 </r>
       <r>   -17.9964     1.9041    45.0615 </r>
       <r>   -17.8941     6.8132    45.7973 </r>
       <r>   -17.7917     3.0271    46.2098 </r>
       <r>   -17.6894     5.7613    46.8896 </r>
       <r>   -17.5870     1.3181    47.0682 </r>
       <r>   -17.4847     0.9301    47.2285 </r>
       <r>   -17.3824     0.9869    47.3677 </r>
       <r>   -17.2800     1.0329    47.5057 </r>
       <r>   -17.1777     1.0928    47.6785 </r>
       <r>   -17.0754     2.5133    47.9572 </r>
       <r>   -16.9730    10.3754    49.0618 </r>
       <r>   -16.8707     4.6092    49.6717 </r>
       <r>   -16.7683    15.0751    51.4094 </r>
       <r>   -16.6660    17.5886    54.0000 </r>
       <r>   -16.5637     0.0000    54.0000 </r>
       <r>   -16.4613     0.0000    54.0000 </r>
       <r>   -16.3590     5.0720    54.5191 </r>
       <r>   -16.2566     4.7876    55.1900 </r>
       <r>   -16.1543     7.8461    56.1030 </r>
       <r>   -16.0520     3.6921    56.7112 </r>
       <r>   -15.9496     0.9587    56.8648 </r>
       <r>   -15.8473     1.1822    57.0210 </r>
       <r>   -15.7450     5.7212    57.6522 </r>
       <r>   -15.6426     1.9542    58.0000 </r>
       <r>   -15.5403     3.4183    58.3498 </r>
       <r>   -15.4379     4.7178    58.9828 </r>
       <r>   -15.3356     1.6602    59.1699 </r>
       <r>   -15.2333     1.6864    59.3726 </r>
       <r>   -15.1309     7.2728    60.1776 </r>
       <r>   -15.0286     9.1197    62.0000 </r>
       <r>   -14.9262     0.0000    62.0000 </r>
       <r>   -14.8239     0.0000    62.0000 </r>
       <r>   -14.7216     1.8846    62.1929 </r>
       <r>   -14.6192    11.7250    64.0000 </r>
       <r>   -14.5169     0.0000    64.0000 </r>
       <r>   -14.4145     0.0000    64.0000 </r>
       <r>   -14.3122    19.5429    66.0000 </r>
       <r>   -14.2099     0.5024    66.0514 </r>
       <r>   -14.1075    12.4497    68.7075 </r>
       <r>   -14.0052     6.0370    69.4178 </r>
       <r>   -13.9029     3.8447    69.9601 </r>
       <r>   -13.8005     3.2812    70.3358 </r>
       <r>   -13.6982     5.3536    70.9812 </r>
       <r>   -13.5958     2.1158    71.2499 </r>
       <r>   -13.4935     6.8399    72.0000 </r>
       <r>   -13.3912    17.4713    73.7880 </r>
       <r>   -13.2888    15.5962    75.5961 </r>
       <r>   -13.1865     3.2507    75.9994 </r>
       <r>   -13.0841     0.0130    76.0013 </r>
       <r>   -12.9818    22.7010    78.6566 </r>
       <r>   -12.8795     6.5161    80.0002 </r>
       <r>   -12.7771    21.8082    82.3652 </r>
       <r>   -12.6748     1.7600    82.6134 </r>
       <r>   -12.5724    21.2347    84.8398 </r>
       <r>   -12.4701     5.4505    85.4911 </r>
       <r>   -12.3678     4.3396    86.1108 </r>
       <r>   -12.2654     7.7725    87.0954 </r>
       <r>   -12.1631     6.0732    87.8215 </r>
       <r>   -12.0608     0.0000    88.0000 </r>
       <r>   -11.9584    20.5461    90.1027 </r>
       <r>   -11.8561     2.6391    90.9034 </r>
       <r>   -11.7537    10.2311    92.0470 </r>
       <r>   -11.6514    22.7251    94.7257 </r>
       <r>   -11.5491    25.5113    97.9775 </r>
       <r>   -11.4467    19.4742    99.9930 </r>
       <r>   -11.3444     0.0000   100.0000 </r>
       <r>   -11.2420    14.2037   101.4536 </r>
       <r>   -11.1397     0.0000   102.0000 </r>
       <r>   -11.0374     0.0000   102.0000 </r>
       <r>   -10.9350     3.0359   102.3107 </r>
       <r>   -10.8327     4.8588   103.4973 </r>
       <r>   -10.7304    19.5406   106.0000 </r>
       <r>   -10.6280     0.0291   106.0030 </r>
       <r>   -10.5257    12.4191   107.5043 </r>
       <r>   -10.4233    23.1637   110.1705 </r>
       <r>   -10.3210    10.0035   111.5571 </r>
       <r>   -10.2187     1.3023   112.0000 </r>
       <r>   -10.1163     0.0000   112.0000 </r>
       <r>   -10.0140    18.0877   113.8511 </r>
       <r>    -9.9116     0.0000   114.0000 </r>
       <r>    -9.8093    29.4220   117.0110 </r>
       <r>    -9.7070     0.1597   118.0163 </r>
       <r>    -9.6046     0.0000   120.0000 </r>
       <r>    -9.5023     0.0000   120.0000 </r>
       <r>    -9.3999     0.0000   120.0000 </r>
       <r>    -9.2976    33.6485   123.4435 </r>
       <r>    -9.1953    20.6332   126.8449 </r>
       <r>    -9.0929    36.8149   132.3343 </r>
       <r>    -8.9906     2.2662   132.7319 </r>
       <r>    -8.8883    20.6847   134.9168 </r>
       <r>    -8.7859     6.3028   135.6784 </r>
       <r>    -8.6836     2.9492   136.1018 </r>
       <r>    -8.5812     5.1491   136.7270 </r>
       <r>    -8.4789     1.7682   137.1476 </r>
       <r>    -8.3766    21.1259   139.3620 </r>
       <r>    -8.2742     2.0969   139.6479 </r>
       <r>    -8.1719    19.6771   141.7137 </r>
       <r>    -8.0695     3.8953   142.5320 </r>
       <r>    -7.9672    34.6046   146.2747 </r>
       <r>    -7.8649     3.9075   148.0000 </r>
       <r>    -7.7625     0.0000   148.0000 </r>
       <r>    -7.6602     0.0000   148.0000 </r>
       <r>    -7.5578     0.0000   148.0000 </r>
       <r>    -7.4555     0.0000   148.0000 </r>
       <r>    -7.3532     0.0000   148.0000 </r>
       <r>    -7.2508     0.0000   148.0000 </r>
       <r>    -7.1485    24.3515   150.4921 </r>
       <r>    -7.0462    18.4035   152.9169 </r>
       <r>    -6.9438     6.8398   154.0000 </r>
       <r>    -6.8415     0.0000   154.0000 </r>
       <r>    -6.7391     8.6349   154.8837 </r>
       <r>    -6.6368    16.3843   156.7768 </r>
       <r>    -6.5345    27.3601   160.0000 </r>
       <r>    -6.4321     0.0000   160.0000 </r>
       <r>    -6.3298     7.6314   160.7810 </r>
       <r>    -6.2274    22.1471   164.0000 </r>
       <r>    -6.1251    15.0078   165.5359 </r>
       <r>    -6.0228    38.9652   169.8544 </r>
       <r>    -5.9204    40.7265   174.1680 </r>
       <r>    -5.8181    15.0280   175.9713 </r>
       <r>    -5.7157    38.8927   179.9803 </r>
       <r>    -5.6134     0.0000   180.0000 </r>
       <r>    -5.5111     0.0000   180.0000 </r>
       <r>    -5.4087     0.0000   180.0000 </r>
       <r>    -5.3064     0.0000   180.0000 </r>
       <r>    -5.2041     0.0000   180.0000 </r>
       <r>    -5.1017    55.5818   185.6882 </r>
       <r>    -4.9994     0.0000   186.0000 </r>
       <r>    -4.8970     0.0000   186.0000 </r>
       <r>    -4.7947     0.0000   186.0000 </r>
       <r>    -4.6924     0.0000   186.0000 </r>
       <r>    -4.5900     0.0000   186.0000 </r>
       <r>    -4.4877     0.0000   186.0000 </r>
       <r>    -4.3853     0.0000   186.0000 </r>
       <r>    -4.2830     0.0000   186.0000 </r>
       <r>    -4.1807     0.0000   186.0000 </r>
       <r>    -4.0783     0.0000   186.0000 </r>
       <r>    -3.9760     0.0000   186.0000 </r>
       <r>    -3.8737     0.0000   186.0000 </r>
       <r>    -3.7713     0.0000   186.0000 </r>
       <r>    -3.6690     2.4590   186.2517 </r>
       <r>    -3.5666    13.8977   188.6557 </r>
       <r>    -3.4643     2.0755   188.9457 </r>
       <r>    -3.3620     6.2065   189.6352 </r>
       <r>    -3.2596     3.4190   190.1166 </r>
       <r>    -3.1573     3.8190   190.5908 </r>
       <r>    -3.0549     1.9049   191.0616 </r>
       <r>    -2.9526     1.4224   191.2122 </r>
       <r>    -2.8503     0.9761   191.3666 </r>
       <r>    -2.7479     1.0113   191.5035 </r>
       <r>    -2.6456     1.0785   191.6770 </r>
       <r>    -2.5432     2.5920   191.9653 </r>
       <r>    -2.4409     0.0000   192.0000 </r>
       <r>    -2.3386    10.5799   193.0827 </r>
       <r>    -2.2362     3.5053   193.5921 </r>
       <r>    -2.1339    23.6190   196.1171 </r>
       <r>    -2.0316    16.7939   198.3854 </r>
       <r>    -1.9292     6.4331   199.1584 </r>
       <r>    -1.8269     7.8392   200.3690 </r>
       <r>    -1.7245     0.6517   200.5000 </r>
       <r>    -1.6222     1.2962   200.6327 </r>
       <r>    -1.5199     1.0181   200.7375 </r>
       <r>    -1.4175     0.9754   200.8665 </r>
       <r>    -1.3152     1.2875   200.9984 </r>
       <r>    -1.2128     3.3858   201.3798 </r>
       <r>    -1.1105     2.0456   201.7093 </r>
       <r>    -1.0082     2.2623   201.9982 </r>
       <r>    -0.9058     2.1641   202.2215 </r>
       <r>    -0.8035     2.0470   202.5095 </r>
       <r>    -0.7011     3.3502   202.9762 </r>
       <r>    -0.5988     1.3030   203.1334 </r>
       <r>    -0.4965     8.1430   204.0000 </r>
       <r>    -0.3941    13.9544   205.4281 </r>
       <r>    -0.2918    24.0368   207.9599 </r>
       <r>    -0.1895    16.3747   210.0758 </r>
       <r>    -0.0871     6.8368   211.5664 </r>
       <r>     0.0152    13.1503   212.9458 </r>
       <r>     0.1176    20.0750   215.3545 </r>
       <r>     0.2199     7.5896   216.6767 </r>
       <r>     0.3222     6.1755   217.6320 </r>
       <r>     0.4246     8.1289   218.9986 </r>
       <r>     0.5269     9.2101   220.1426 </r>
       <r>     0.6293     8.6522   221.2188 </r>
       <r>     0.7316     9.9072   222.5806 </r>
       <r>     0.8339    16.3945   224.7778 </r>
       <r>     0.9363     6.9159   226.1744 </r>
       <r>     1.0386    10.0424   227.7611 </r>
       <r>     1.1409    16.1713   230.5217 </r>
       <r>     1.2433    14.5448   232.3885 </r>
       <r>     1.3456    26.8944   235.3524 </r>
       <r>     1.4480    21.0036   238.2495 </r>
       <r>     1.5503    18.3638   240.5460 </r>
       <r>     1.6526    23.1173   243.1325 </r>
       <r>     1.7550    21.7874   245.9964 </r>
       <r>     1.8573    25.1060   249.0361 </r>
       <r>     1.9597    19.9193   251.6385 </r>
       <r>     2.0620    27.4784   255.0455 </r>
       <r>     2.1643     4.2340   256.0000 </r>
       <r>     2.2667     0.0000   256.0000 </r>
       <r>     2.3690     0.0000   256.0000 </r>
       <r>     2.4714     0.0000   256.0000 </r>
       <r>     2.5737     0.0000   256.0000 </r>
       <r>     2.6760     0.0000   256.0000 </r>
       <r>     2.7784     0.0000   256.0000 </r>
       <r>     2.8807     0.0000   256.0000 </r>
       <r>     2.9830     0.0000   256.0000 </r>
       <r>     3.0854     0.0000   256.0000 </r>
       <r>     3.1877     0.0000   256.0000 </r>
       <r>     3.2901     0.0000   256.0000 </r>
       <r>     3.3924     0.0000   256.0000 </r>
       <r>     3.4947     0.0000   256.0000 </r>
      </set>
     </set>
    </array>
   </total>
  </dos>
 </calculation>
 <structure name="finalpos" >
  <crystal>
   <varray name="basis" >
    <v>      14.33038885       0.00659602       0.00000000 </v>
    <v>      -7.15953678      12.40761308       0.00000000 </v>
    <v>       0.00000000       0.00000000      20.00000000 </v>
   </varray>
   <i name="volume">   3557.06289251 </i>
   <varray name="rec_basis" >
    <v>       0.06976325       0.04025533       0.00000000 </v>
    <v>      -0.00003709       0.08057428       0.00000000 </v>
    <v>       0.00000000       0.00000000       0.05000000 </v>
   </varray>
  </crystal>
  <varray name="positions" >
   <v>       0.87480854       0.26650367       0.54294262 </v>
   <v>       0.37621572       0.13119400       0.54449288 </v>
   <v>       0.73777512       0.62786152       0.54386449 </v>
   <v>       0.30285449       0.40802503       0.43503175 </v>
   <v>       0.88813477       0.22520667       0.38854463 </v>
   <v>       0.84079108       0.13113814       0.45181621 </v>
   <v>       0.31877573       0.11667781       0.39055395 </v>
   <v>       0.27324463       0.16461448       0.45412768 </v>
   <v>       0.77864369       0.68840066       0.39010412 </v>
   <v>       0.87282266       0.73287612       0.45338827 </v>
   <v>       0.08706648       0.70173160       0.43535336 </v>
   <v>       0.59577658       0.91663522       0.43442635 </v>
   <v>       0.44445290       0.56628979       0.44720425 </v>
   <v>       0.39030897       0.45351899       0.44030177 </v>
   <v>       0.38375473       0.62545389       0.44527328 </v>
   <v>       0.37863042       0.78076101       0.44544164 </v>
   <v>       0.22349149       0.62048909       0.44472377 </v>
   <v>       0.60979664       0.23693624       0.44676475 </v>
   <v>       0.60952203       0.39482332       0.44660680 </v>
   <v>       0.76752416       0.39498110       0.44655918 </v>
   <v>       0.88719750       0.45373866       0.44821564 </v>
   <v>       0.10372690       0.55981150       0.44646277 </v>
   <v>       0.94624096       0.39963280       0.45879827 </v>
   <v>       0.89628757       0.28385690       0.48308204 </v>
   <v>       0.54869635       0.11720184       0.44849781 </v>
   <v>       0.43778977       0.90058639       0.44715867 </v>
   <v>       0.43580541       0.05849618       0.45984627 </v>
   <v>       0.37075772       0.10901470       0.48467015 </v>
   <v>       0.55066692       0.45576398       0.44856571 </v>
   <v>       0.60456363       0.56874261       0.45978523 </v>
   <v>       0.72024977       0.63400313       0.48426435 </v>
   <v>       0.04515475       0.61416509       0.44018668 </v>
   <v>       0.55047297       0.95883804       0.43992168 </v>
   <v>       0.55130358       0.62319576       0.45666228 </v>
   <v>       0.43941262       0.73344900       0.44563528 </v>
   <v>       0.27576010       0.56471540       0.44432905 </v>
   <v>       0.27068633       0.72855148       0.44483310 </v>
   <v>       0.55177128       0.28685037       0.44628723 </v>
   <v>       0.71738583       0.45285078       0.44590531 </v>
   <v>       0.71773249       0.28705976       0.44644466 </v>
   <v>       0.05383033       0.45281095       0.45540765 </v>
   <v>       0.88826686       0.20927253       0.43790647 </v>
   <v>       0.38111106       0.95083393       0.45670884 </v>
   <v>       0.30342769       0.11677927       0.44001767 </v>
   <v>       0.79465625       0.70216149       0.43961344 </v>
   <v>       0.93785744       0.56095331       0.43922960 </v>
   <v>       0.60474967       0.06616256       0.43877538 </v>
   <v>       0.44357892       0.39939226       0.43919163 </v>
  </varray>
 </structure>
</modeling>
