<?xml version="1.0" encoding="ISO-8859-1"?>
<modeling>
 <generator>
  <i name="program" type="string">vasp </i>
  <i name="version" type="string">5.4.4.18Apr17-6-g9f103f2a35  </i>
  <i name="subversion" type="string">(build Jun 07 2020 16:50:00) complex            parallel </i>
  <i name="platform" type="string">LinuxIFC </i>
  <i name="date" type="string">2023 02 10 </i>
  <i name="time" type="string">16:21:54 </i>
 </generator>
 <incar>
  <i type="string" name="SYSTEM">Simulation for cell shape cell volume r</i>
  <i type="int" name="ISTART">     1</i>
  <i type="string" name="PREC">high</i>
  <i type="string" name="ALGO">48</i>
  <i type="int" name="ICHARG">    11</i>
  <i type="int" name="NELM">   200</i>
  <i type="int" name="IBRION">    -1</i>
  <i name="EDIFF">      0.00001000</i>
  <i name="EDIFFG">     -0.01000000</i>
  <i type="int" name="NSW">     0</i>
  <i type="int" name="ISIF">     2</i>
  <i name="ENCUT">    500.00000000</i>
  <i name="POTIM">      0.30000000</i>
  <i type="string" name="LREAL">A</i>
  <i type="int" name="ISMEAR">     0</i>
  <i name="SIGMA">      0.01000000</i>
  <i type="int" name="NWRITE">     0</i>
  <i type="logical" name="LWAVE"> F  </i>
  <i type="logical" name="LCHARG"> F  </i>
  <v type="int" name="KPOINT_BSE">    -1     0     0     0</v>
  <i type="int" name="NELM">   200</i>
  <i type="string" name="GGA">PE</i>
 </incar>
 <structure name="primitive_cell" >
  <crystal>
   <varray name="basis" >
    <v>      21.50596724      -0.01567846       0.00000000 </v>
    <v>     -10.76661723      18.65515962       0.00000000 </v>
    <v>       0.00000000       0.00000000      20.00000000 </v>
   </varray>
   <i name="volume">   8020.56895319 </i>
   <varray name="rec_basis" >
    <v>       0.04651829       0.02684751       0.00000000 </v>
    <v>       0.00003910       0.05362704       0.00000000 </v>
    <v>       0.00000000       0.00000000       0.05000000 </v>
   </varray>
  </crystal>
  <varray name="positions" >
   <v>       0.31868831      -0.40299387       0.47115408 </v>
   <v>       0.26317435      -0.39138488       0.47196409 </v>
   <v>       0.38364745      -0.34347215       0.47159212 </v>
   <v>       0.37608855      -0.45979143       0.48144771 </v>
   <v>       0.26856260      -0.32655555       0.47248849 </v>
   <v>       0.39532841      -0.27640652       0.47187799 </v>
   <v>       0.18821894      -0.45700503       0.47592193 </v>
   <v>       0.44932405      -0.35270461       0.47537940 </v>
   <v>       0.43004172      -0.42334660       0.48230011 </v>
   <v>       0.33574553      -0.27108775       0.47241417 </v>
   <v>       0.17844348       0.48167265       0.47496771 </v>
   <v>      -0.48919388      -0.30118091       0.47405839 </v>
   <v>       0.13657146      -0.43794485       0.48246901 </v>
   <v>       0.15393692      -0.38410333       0.48156161 </v>
   <v>       0.47416999      -0.45217813       0.49454831 </v>
   <v>       0.34494959      -0.19629294       0.47630331 </v>
   <v>       0.43660117       0.47599338      -0.49868545 </v>
   <v>       0.45229129      -0.16188976       0.48236108 </v>
   <v>       0.41567099      -0.14464922       0.48310213 </v>
   <v>       0.06360089      -0.48215117       0.49499398 </v>
   <v>       0.29324354      -0.18665277       0.47494550 </v>
   <v>       0.05893672       0.41449706       0.49545604 </v>
   <v>      -0.45047330      -0.41155627      -0.49953311 </v>
   <v>      -0.42212731      -0.35362022       0.49424598 </v>
   <v>       0.02916275       0.44268980      -0.49845552 </v>
   <v>       0.46978903       0.43965285      -0.48559430 </v>
   <v>       0.02901929      -0.44483499      -0.49859004 </v>
   <v>       0.44437477      -0.07162860       0.49456413 </v>
   <v>      -0.41607108      -0.44949292      -0.48545377 </v>
   <v>      -0.45838371       0.47538752      -0.47881267 </v>
   <v>      -0.04315727       0.40825385      -0.48387755 </v>
   <v>      -0.48366496      -0.03697546      -0.49876856 </v>
   <v>       0.34551740      -0.06701108       0.49328696 </v>
   <v>      -0.04049775      -0.47805071      -0.48501499 </v>
   <v>       0.40351499      -0.03717624       0.49968084 </v>
   <v>      -0.35778920      -0.42224698      -0.47983234 </v>
   <v>      -0.07398068       0.35010126      -0.47778087 </v>
   <v>      -0.07623653       0.45032691      -0.47741504 </v>
   <v>      -0.42405892       0.43631077      -0.46591675 </v>
   <v>      -0.44744935       0.03263576      -0.48622873 </v>
   <v>       0.44130710       0.03524855      -0.48671287 </v>
   <v>       0.48483192       0.31621566      -0.45479474 </v>
   <v>      -0.36906894       0.46427982      -0.46430912 </v>
   <v>      -0.45224539       0.36338833      -0.45776591 </v>
   <v>      -0.48348926       0.06837803      -0.47976149 </v>
   <v>      -0.14962452       0.41592612      -0.46402397 </v>
   <v>       0.41389179       0.06610345      -0.48167460 </v>
   <v>      -0.17664292       0.36100482      -0.46292606 </v>
   <v>      -0.19460496       0.44391381      -0.45609884 </v>
   <v>      -0.17896259      -0.49330182      -0.45288385 </v>
   <v>      -0.39133180       0.34628601      -0.45404281 </v>
   <v>      -0.44462302       0.14176369      -0.46694224 </v>
   <v>      -0.32355578       0.40142747      -0.45303754 </v>
   <v>      -0.47268527       0.16863268      -0.46601957 </v>
   <v>      -0.32460251       0.17090518      -0.45379571 </v>
   <v>      -0.37172926       0.18660321      -0.45779095 </v>
   <v>      -0.40975324       0.27710657      -0.45449381 </v>
   <v>      -0.27270730       0.38303907      -0.45312511 </v>
   <v>      -0.28531561       0.31536703      -0.45343371 </v>
   <v>      -0.35459469       0.26454042      -0.45422279 </v>
  </varray>
 </structure>
 <varray name="primitive_index" >
  <v type="int" >        1 </v>
  <v type="int" >       38 </v>
  <v type="int" >       19 </v>
  <v type="int" >       53 </v>
  <v type="int" >        3 </v>
  <v type="int" >        2 </v>
  <v type="int" >       23 </v>
  <v type="int" >       21 </v>
  <v type="int" >       15 </v>
  <v type="int" >       20 </v>
  <v type="int" >       56 </v>
  <v type="int" >       57 </v>
  <v type="int" >       18 </v>
  <v type="int" >       54 </v>
  <v type="int" >       41 </v>
  <v type="int" >       22 </v>
  <v type="int" >       14 </v>
  <v type="int" >       52 </v>
  <v type="int" >       12 </v>
  <v type="int" >       42 </v>
  <v type="int" >       55 </v>
  <v type="int" >       50 </v>
  <v type="int" >       32 </v>
  <v type="int" >       47 </v>
  <v type="int" >       35 </v>
  <v type="int" >       13 </v>
  <v type="int" >       17 </v>
  <v type="int" >       40 </v>
  <v type="int" >       33 </v>
  <v type="int" >       34 </v>
  <v type="int" >       36 </v>
  <v type="int" >       11 </v>
  <v type="int" >       44 </v>
  <v type="int" >       16 </v>
  <v type="int" >       29 </v>
  <v type="int" >       46 </v>
  <v type="int" >       49 </v>
  <v type="int" >       37 </v>
  <v type="int" >        8 </v>
  <v type="int" >       10 </v>
  <v type="int" >       30 </v>
  <v type="int" >       60 </v>
  <v type="int" >       48 </v>
  <v type="int" >       26 </v>
  <v type="int" >       31 </v>
  <v type="int" >        9 </v>
  <v type="int" >       43 </v>
  <v type="int" >       51 </v>
  <v type="int" >       28 </v>
  <v type="int" >       59 </v>
  <v type="int" >       24 </v>
  <v type="int" >        7 </v>
  <v type="int" >        4 </v>
  <v type="int" >       45 </v>
  <v type="int" >       58 </v>
  <v type="int" >       27 </v>
  <v type="int" >        5 </v>
  <v type="int" >       39 </v>
  <v type="int" >        6 </v>
  <v type="int" >       25 </v>
 </varray>
 <kpoints>
  <generation param="listgenerated">
   <i name="divisions" type="int">      20 </i>
   <v>       0.00000000       0.00000000       0.00000000 </v>
   <v>       0.50000000       0.00000000       0.00000000 </v>
   <v>       0.33333333       0.33333333       0.00000000 </v>
   <v>       0.00000000       0.00000000       0.00000000 </v>
  </generation>
  <varray name="kpointlist" >
   <v>       0.00000000       0.00000000       0.00000000 </v>
   <v>       0.02631579       0.00000000       0.00000000 </v>
   <v>       0.05263158       0.00000000       0.00000000 </v>
   <v>       0.07894737       0.00000000       0.00000000 </v>
   <v>       0.10526316       0.00000000       0.00000000 </v>
   <v>       0.13157895       0.00000000       0.00000000 </v>
   <v>       0.15789474       0.00000000       0.00000000 </v>
   <v>       0.18421053       0.00000000       0.00000000 </v>
   <v>       0.21052632       0.00000000       0.00000000 </v>
   <v>       0.23684211       0.00000000       0.00000000 </v>
   <v>       0.26315789       0.00000000       0.00000000 </v>
   <v>       0.28947368       0.00000000       0.00000000 </v>
   <v>       0.31578947       0.00000000       0.00000000 </v>
   <v>       0.34210526       0.00000000       0.00000000 </v>
   <v>       0.36842105       0.00000000       0.00000000 </v>
   <v>       0.39473684       0.00000000       0.00000000 </v>
   <v>       0.42105263       0.00000000       0.00000000 </v>
   <v>       0.44736842       0.00000000       0.00000000 </v>
   <v>       0.47368421       0.00000000       0.00000000 </v>
   <v>       0.50000000       0.00000000       0.00000000 </v>
   <v>       0.50000000       0.00000000       0.00000000 </v>
   <v>       0.49122807       0.01754386       0.00000000 </v>
   <v>       0.48245614       0.03508772       0.00000000 </v>
   <v>       0.47368421       0.05263158       0.00000000 </v>
   <v>       0.46491228       0.07017544       0.00000000 </v>
   <v>       0.45614035       0.08771930       0.00000000 </v>
   <v>       0.44736842       0.10526316       0.00000000 </v>
   <v>       0.43859649       0.12280702       0.00000000 </v>
   <v>       0.42982456       0.14035088       0.00000000 </v>
   <v>       0.42105263       0.15789474       0.00000000 </v>
   <v>       0.41228070       0.17543860       0.00000000 </v>
   <v>       0.40350877       0.19298246       0.00000000 </v>
   <v>       0.39473684       0.21052632       0.00000000 </v>
   <v>       0.38596491       0.22807018       0.00000000 </v>
   <v>       0.37719298       0.24561404       0.00000000 </v>
   <v>       0.36842105       0.26315789       0.00000000 </v>
   <v>       0.35964912       0.28070175       0.00000000 </v>
   <v>       0.35087719       0.29824561       0.00000000 </v>
   <v>       0.34210526       0.31578947       0.00000000 </v>
   <v>       0.33333333       0.33333333       0.00000000 </v>
   <v>       0.33333333       0.33333333       0.00000000 </v>
   <v>       0.31578947       0.31578947       0.00000000 </v>
   <v>       0.29824561       0.29824561       0.00000000 </v>
   <v>       0.28070175       0.28070175       0.00000000 </v>
   <v>       0.26315789       0.26315789       0.00000000 </v>
   <v>       0.24561404       0.24561404       0.00000000 </v>
   <v>       0.22807018       0.22807018       0.00000000 </v>
   <v>       0.21052632       0.21052632       0.00000000 </v>
   <v>       0.19298246       0.19298246       0.00000000 </v>
   <v>       0.17543860       0.17543860       0.00000000 </v>
   <v>       0.15789474       0.15789474       0.00000000 </v>
   <v>       0.14035088       0.14035088       0.00000000 </v>
   <v>       0.12280702       0.12280702       0.00000000 </v>
   <v>       0.10526316       0.10526316       0.00000000 </v>
   <v>       0.08771930       0.08771930       0.00000000 </v>
   <v>       0.07017544       0.07017544       0.00000000 </v>
   <v>       0.05263158       0.05263158       0.00000000 </v>
   <v>       0.03508772       0.03508772       0.00000000 </v>
   <v>       0.01754386       0.01754386       0.00000000 </v>
   <v>       0.00000000       0.00000000       0.00000000 </v>
  </varray>
  <varray name="weights" >
   <v>       0.01666667 </v>
   <v>       0.01666667 </v>
   <v>       0.01666667 </v>
   <v>       0.01666667 </v>
   <v>       0.01666667 </v>
   <v>       0.01666667 </v>
   <v>       0.01666667 </v>
   <v>       0.01666667 </v>
   <v>       0.01666667 </v>
   <v>       0.01666667 </v>
   <v>       0.01666667 </v>
   <v>       0.01666667 </v>
   <v>       0.01666667 </v>
   <v>       0.01666667 </v>
   <v>       0.01666667 </v>
   <v>       0.01666667 </v>
   <v>       0.01666667 </v>
   <v>       0.01666667 </v>
   <v>       0.01666667 </v>
   <v>       0.01666667 </v>
   <v>       0.01666667 </v>
   <v>       0.01666667 </v>
   <v>       0.01666667 </v>
   <v>       0.01666667 </v>
   <v>       0.01666667 </v>
   <v>       0.01666667 </v>
   <v>       0.01666667 </v>
   <v>       0.01666667 </v>
   <v>       0.01666667 </v>
   <v>       0.01666667 </v>
   <v>       0.01666667 </v>
   <v>       0.01666667 </v>
   <v>       0.01666667 </v>
   <v>       0.01666667 </v>
   <v>       0.01666667 </v>
   <v>       0.01666667 </v>
   <v>       0.01666667 </v>
   <v>       0.01666667 </v>
   <v>       0.01666667 </v>
   <v>       0.01666667 </v>
   <v>       0.01666667 </v>
   <v>       0.01666667 </v>
   <v>       0.01666667 </v>
   <v>       0.01666667 </v>
   <v>       0.01666667 </v>
   <v>       0.01666667 </v>
   <v>       0.01666667 </v>
   <v>       0.01666667 </v>
   <v>       0.01666667 </v>
   <v>       0.01666667 </v>
   <v>       0.01666667 </v>
   <v>       0.01666667 </v>
   <v>       0.01666667 </v>
   <v>       0.01666667 </v>
   <v>       0.01666667 </v>
   <v>       0.01666667 </v>
   <v>       0.01666667 </v>
   <v>       0.01666667 </v>
   <v>       0.01666667 </v>
   <v>       0.01666667 </v>
  </varray>
 </kpoints>
 <parameters>
  <separator name="general" >
   <i type="string" name="SYSTEM">Simulation for cell shape cell volume r</i>
   <i type="logical" name="LCOMPAT"> F  </i>
  </separator>
  <separator name="electronic" >
   <i type="string" name="PREC">high</i>
   <i name="ENMAX">    500.00000000</i>
   <i name="ENAUG">    644.87300000</i>
   <i name="EDIFF">      0.00001000</i>
   <i type="int" name="IALGO">    38</i>
   <i type="int" name="IWAVPR">    10</i>
   <i type="int" name="NBANDS">   160</i>
   <i name="NELECT">    234.00000000</i>
   <i type="int" name="TURBO">     0</i>
   <i type="int" name="IRESTART">     0</i>
   <i type="int" name="NREBOOT">     0</i>
   <i type="int" name="NMIN">     0</i>
   <i name="EREF">      0.00000000</i>
   <separator name="electronic smearing" >
    <i type="int" name="ISMEAR">     0</i>
    <i name="SIGMA">      0.01000000</i>
    <i name="KSPACING">      0.50000000</i>
    <i type="logical" name="KGAMMA"> T  </i>
   </separator>
   <separator name="electronic projectors" >
    <i type="logical" name="LREAL"> T  </i>
    <v name="ROPT">     -0.00040000     -0.00040000     -0.00040000     -0.00040000</v>
    <i type="int" name="LMAXPAW">  -100</i>
    <i type="int" name="LMAXMIX">     2</i>
    <i type="logical" name="NLSPLINE"> F  </i>
   </separator>
   <separator name="electronic startup" >
    <i type="int" name="ISTART">     1</i>
    <i type="int" name="ICHARG">    11</i>
    <i type="int" name="INIWAV">     1</i>
   </separator>
   <separator name="electronic spin" >
    <i type="int" name="ISPIN">     1</i>
    <i type="logical" name="LNONCOLLINEAR"> F  </i>
    <v name="MAGMOM">      1.00000000      1.00000000      1.00000000      1.00000000      1.00000000      1.00000000      1.00000000      1.00000000      1.00000000      1.00000000      1.00000000      1.00000000      1.00000000      1.00000000      1.00000000      1.00000000      1.00000000      1.00000000      1.00000000      1.00000000
      1.00000000      1.00000000      1.00000000      1.00000000      1.00000000      1.00000000      1.00000000      1.00000000      1.00000000      1.00000000      1.00000000      1.00000000      1.00000000      1.00000000      1.00000000      1.00000000      1.00000000      1.00000000      1.00000000      1.00000000
      1.00000000      1.00000000      1.00000000      1.00000000      1.00000000      1.00000000      1.00000000      1.00000000      1.00000000      1.00000000      1.00000000      1.00000000      1.00000000      1.00000000      1.00000000      1.00000000      1.00000000      1.00000000      1.00000000      1.00000000
</v>
    <i name="NUPDOWN">     -1.00000000</i>
    <i type="logical" name="LSORBIT"> F  </i>
    <v name="SAXIS">      0.00000000      0.00000000      1.00000000</v>
    <i type="logical" name="LSPIRAL"> F  </i>
    <v name="QSPIRAL">      0.00000000      0.00000000      0.00000000</v>
    <i type="logical" name="LZEROZ"> F  </i>
   </separator>
   <separator name="electronic exchange-correlation" >
    <i type="logical" name="LASPH"> F  </i>
    <i type="logical" name="LMETAGGA"> F  </i>
   </separator>
   <separator name="electronic convergence" >
    <i type="int" name="NELM">   200</i>
    <i type="int" name="NELMDL">     0</i>
    <i type="int" name="NELMIN">     2</i>
    <i name="ENINI">    500.00000000</i>
    <separator name="electronic convergence detail" >
     <i type="logical" name="LDIAG"> T  </i>
     <i type="logical" name="LSUBROT"> F  </i>
     <i name="WEIMIN">      0.00000000</i>
     <i name="EBREAK">      0.00000002</i>
     <i name="DEPER">      0.30000000</i>
     <i type="int" name="NRMM">     4</i>
     <i name="TIME">      0.40000000</i>
    </separator>
   </separator>
   <separator name="electronic mixer" >
    <i name="AMIX">      0.40000000</i>
    <i name="BMIX">      1.00000000</i>
    <i name="AMIN">      0.10000000</i>
    <i name="AMIX_MAG">      1.60000000</i>
    <i name="BMIX_MAG">      1.00000000</i>
    <separator name="electronic mixer details" >
     <i type="int" name="IMIX">     4</i>
     <i type="logical" name="MIXFIRST"> F  </i>
     <i type="int" name="MAXMIX">   -45</i>
     <i name="WC">    100.00000000</i>
     <i type="int" name="INIMIX">     1</i>
     <i type="int" name="MIXPRE">     1</i>
     <i type="int" name="MREMOVE">     5</i>
    </separator>
   </separator>
   <separator name="electronic dipolcorrection" >
    <i type="logical" name="LDIPOL"> F  </i>
    <i type="logical" name="LMONO"> F  </i>
    <i type="int" name="IDIPOL">     0</i>
    <i name="EPSILON">      1.00000000</i>
    <v name="DIPOL">   -100.00000000   -100.00000000   -100.00000000</v>
    <i name="EFIELD">      0.00000000</i>
   </separator>
  </separator>
  <separator name="grids" >
   <i type="int" name="NGX">   160</i>
   <i type="int" name="NGY">   160</i>
   <i type="int" name="NGZ">   150</i>
   <i type="int" name="NGXF">   240</i>
   <i type="int" name="NGYF">   240</i>
   <i type="int" name="NGZF">   224</i>
   <i type="logical" name="ADDGRID"> F  </i>
  </separator>
  <separator name="ionic" >
   <i type="int" name="NSW">     0</i>
   <i type="int" name="IBRION">    -1</i>
   <i type="int" name="MDALGO">     0</i>
   <i type="int" name="ISIF">     2</i>
   <i name="PSTRESS">      0.00000000</i>
   <i name="EDIFFG">     -0.01000000</i>
   <i type="int" name="NFREE">     0</i>
   <i name="POTIM">      0.30000000</i>
   <i name="SMASS">     -3.00000000</i>
   <i name="SCALEE">      1.00000000</i>
  </separator>
  <separator name="ionic md" >
   <i name="TEBEG">      0.00010000</i>
   <i name="TEEND">      0.00010000</i>
   <i type="int" name="NBLOCK">     1</i>
   <i type="int" name="KBLOCK">     1</i>
   <i type="int" name="NPACO">   256</i>
   <i name="APACO">     16.00000000</i>
  </separator>
  <separator name="symmetry" >
   <i type="int" name="ISYM">     2</i>
   <i name="SYMPREC">      0.00001000</i>
  </separator>
  <separator name="dos" >
   <i type="int" name="LORBIT">     0</i>
   <v name="RWIGS">     -1.00000000     -1.00000000     -1.00000000     -1.00000000</v>
   <i type="int" name="NEDOS">   301</i>
   <i name="EMIN">     10.00000000</i>
   <i name="EMAX">    -10.00000000</i>
   <i name="EFERMI">      0.00000000</i>
  </separator>
  <separator name="writing" >
   <i type="int" name="NWRITE">     0</i>
   <i type="logical" name="LWAVE"> F  </i>
   <i type="logical" name="LDOWNSAMPLE"> F  </i>
   <i type="logical" name="LCHARG"> F  </i>
   <i type="logical" name="LPARD"> F  </i>
   <i type="logical" name="LVTOT"> F  </i>
   <i type="logical" name="LVHAR"> F  </i>
   <i type="logical" name="LELF"> F  </i>
   <i type="logical" name="LOPTICS"> F  </i>
   <v name="STM">      0.00000000      0.00000000      0.00000000      0.00000000      0.00000000      0.00000000      0.00000000</v>
  </separator>
  <separator name="performance" >
   <i type="int" name="NPAR">    16</i>
   <i type="int" name="NSIM">     4</i>
   <i type="int" name="NBLK">    -1</i>
   <i type="logical" name="LPLANE"> T  </i>
   <i type="logical" name="LSCALAPACK"> T  </i>
   <i type="logical" name="LSCAAWARE"> F  </i>
   <i type="logical" name="LSCALU"> F  </i>
   <i type="logical" name="LASYNC"> F  </i>
   <i type="logical" name="LORBITALREAL"> F  </i>
  </separator>
  <separator name="miscellaneous" >
   <i type="int" name="IDIOT">     3</i>
   <i type="int" name="ISPECIAL">     0</i>
   <i type="logical" name="LMUSIC"> F  </i>
   <v name="POMASS">     14.00100000     12.01100000      1.00000000     16.00000000</v>
   <v name="DARWINR">      0.00000000      0.00000000      0.00000000      0.00000000</v>
   <v name="DARWINV">      1.00000000      1.00000000      1.00000000      1.00000000</v>
   <i type="logical" name="LCORR"> T  </i>
  </separator>
  <i type="logical" name="GGA_COMPAT"> T  </i>
  <i type="logical" name="LBERRY"> F  </i>
  <i type="int" name="ICORELEVEL">     0</i>
  <i type="logical" name="LDAU"> F  </i>
  <i type="int" name="I_CONSTRAINED_M">     0</i>
  <separator name="electronic exchange-correlation" >
   <i type="string" name="GGA">PE</i>
   <i type="int" name="VOSKOWN">     0</i>
   <i type="logical" name="LHFCALC"> F  </i>
   <i type="string" name="PRECFOCK"></i>
   <i type="logical" name="LSYMGRAD"> F  </i>
   <i type="logical" name="LHFONE"> F  </i>
   <i type="logical" name="LRHFCALC"> F  </i>
   <i type="logical" name="LTHOMAS"> F  </i>
   <i type="logical" name="LMODELHF"> F  </i>
   <i name="ENCUT4O">     -1.00000000</i>
   <i type="int" name="EXXOEP">     0</i>
   <i type="int" name="FOURORBIT">     0</i>
   <i name="AEXX">      0.00000000</i>
   <i name="HFALPHA">      0.00000000</i>
   <i name="MCALPHA">      0.00000000</i>
   <i name="ALDAX">      1.00000000</i>
   <i name="AGGAX">      1.00000000</i>
   <i name="ALDAC">      1.00000000</i>
   <i name="AGGAC">      1.00000000</i>
   <i type="int" name="NKREDX">     1</i>
   <i type="int" name="NKREDY">     1</i>
   <i type="int" name="NKREDZ">     1</i>
   <i type="logical" name="SHIFTRED"> F  </i>
   <i type="logical" name="ODDONLY"> F  </i>
   <i type="logical" name="EVENONLY"> F  </i>
   <i type="int" name="LMAXFOCK">     0</i>
   <i type="int" name="NMAXFOCKAE">     0</i>
   <i type="logical" name="LFOCKAEDFT"> F  </i>
   <i name="HFSCREEN">      0.00000000</i>
   <i name="HFSCREENC">      0.00000000</i>
   <i type="int" name="NBANDSGWLOW">     0</i>
  </separator>
  <separator name="vdW DFT" >
   <i type="logical" name="LUSE_VDW"> F  </i>
   <i name="Zab_VDW">     -0.84910000</i>
   <i name="PARAM1">      0.12340000</i>
   <i name="PARAM2">      1.00000000</i>
   <i name="PARAM3">      0.00000000</i>
  </separator>
  <separator name="model GW" >
   <i type="int" name="MODEL_GW">     0</i>
   <i name="MODEL_EPS0">     80.20568953</i>
   <i name="MODEL_ALPHA">      1.00000000</i>
  </separator>
  <separator name="linear response parameters" >
   <i type="logical" name="LEPSILON"> F  </i>
   <i type="logical" name="LRPA"> F  </i>
   <i type="logical" name="LNABLA"> F  </i>
   <i type="logical" name="LVEL"> F  </i>
   <i type="int" name="KINTER">     0</i>
   <i name="CSHIFT">      0.10000000</i>
   <i name="OMEGAMAX">     -1.00000000</i>
   <i name="DEG_THRESHOLD">      0.00200000</i>
   <i name="RTIME">     -0.10000000</i>
   <i name="WPLASMAI">      0.00000000</i>
   <v name="DFIELD">      0.00000000      0.00000000      0.00000000</v>
   <v name="WPLASMA">      0.00000000      0.00000000      0.00000000      0.00000000      0.00000000      0.00000000      0.00000000      0.00000000      0.00000000</v>
  </separator>
  <separator name="orbital magnetization" >
   <i type="logical" name="NUCIND"> F  </i>
   <v name="MAGPOS">      0.00000000      0.00000000      0.00000000</v>
   <i type="logical" name="LNICSALL"> T  </i>
   <i type="logical" name="ORBITALMAG"> F  </i>
   <i type="logical" name="LMAGBLOCH"> F  </i>
   <i type="logical" name="LCHIMAG"> F  </i>
   <i type="logical" name="LGAUGE"> T  </i>
   <i type="int" name="MAGATOM">     0</i>
   <v name="MAGDIPOL">      0.00000000      0.00000000      0.00000000</v>
   <v name="AVECCONST">      0.00000000      0.00000000      0.00000000</v>
  </separator>
  <separator name="response functions" >
   <i type="logical" name="LADDER"> F  </i>
   <i type="logical" name="LRPAFORCE"> F  </i>
   <i type="logical" name="LFXC"> F  </i>
   <i type="logical" name="LHARTREE"> T  </i>
   <i type="int" name="IBSE">     0</i>
   <v type="int" name="KPOINT">    -1     0     0     0</v>
   <i type="logical" name="LTCTE"> F  </i>
   <i type="logical" name="LTETE"> F  </i>
   <i type="logical" name="LTRIPLET"> F  </i>
   <i type="logical" name="LFXCEPS"> F  </i>
   <i type="logical" name="LFXHEG"> F  </i>
   <i type="int" name="NATURALO">     2</i>
   <i type="logical" name="L2ORDER"> F  </i>
   <i type="logical" name="LMP2LT"> F  </i>
   <i type="logical" name="LUSEW"> F  </i>
   <i name="ENCUTGW">     -2.00000000</i>
   <i name="ENCUTGWSOFT">     -2.00000000</i>
   <i name="ENCUTLF">     -1.00000000</i>
   <i type="int" name="LMAXMP2">    -1</i>
   <i name="SCISSOR">      0.00000000</i>
   <i type="int" name="NOMEGA">     0</i>
   <i type="int" name="NOMEGAR">     0</i>
   <i type="int" name="NBANDSGW">    -1</i>
   <i type="int" name="NBANDSO">    -1</i>
   <i type="int" name="NBANDSV">    -1</i>
   <i type="int" name="NELM">   200</i>
   <i type="int" name="NELMHF">     1</i>
   <i type="int" name="DIM">     3</i>
   <i type="int" name="ANTIRES">     0</i>
   <i name="OMEGAMAX">    -30.00000000</i>
   <i name="OMEGAMIN">    -30.00000000</i>
   <i name="OMEGATL">   -200.00000000</i>
   <i type="int" name="OMEGAGRID">   140</i>
   <i name="CSHIFT">     -0.10000000</i>
   <i type="logical" name="SELFENERGY"> F  </i>
   <i type="logical" name="LSPECTRAL"> F  </i>
   <i type="logical" name="LSPECTRALGW"> F  </i>
   <i type="logical" name="LSINGLES"> F  </i>
   <i type="logical" name="LFERMIGW"> F  </i>
   <i type="logical" name="ODDONLYGW"> F  </i>
   <i type="logical" name="EVENONLYGW"> F  </i>
   <i type="int" name="NKREDLFX">     1</i>
   <i type="int" name="NKREDLFY">     1</i>
   <i type="int" name="NKREDLFZ">     1</i>
   <i type="int" name="MAXMEM">  2800</i>
   <i type="int" name="TELESCOPE">     0</i>
   <i type="int" name="TAUPAR">     1</i>
   <i type="int" name="OMEGAPAR">    -1</i>
   <i name="LAMBDA">      1.00000000</i>
  </separator>
  <separator name="External order field" >
   <i name="OFIELD_KAPPA">      0.00000000</i>
   <v name="OFIELD_K">      0.00000000      0.00000000      0.00000000</v>
   <i name="OFIELD_Q6_NEAR">      0.00000000</i>
   <i name="OFIELD_Q6_FAR">      0.00000000</i>
   <i name="OFIELD_A">      0.00000000</i>
  </separator>
  <separator name="solvation model" >
   <i type="logical" name="LSOL"> F  </i>
  </separator>
 </parameters>
 <atominfo>
  <atoms>      60 </atoms>
  <types>       4 </types>
  <array name="atoms" >
   <dimension dim="1">ion</dimension>
   <field type="string">element</field>
   <field type="int">atomtype</field>
   <set>
    <rc><c>N </c><c>   1</c></rc>
    <rc><c>N </c><c>   1</c></rc>
    <rc><c>N </c><c>   1</c></rc>
    <rc><c>N </c><c>   1</c></rc>
    <rc><c>N </c><c>   1</c></rc>
    <rc><c>N </c><c>   1</c></rc>
    <rc><c>N </c><c>   1</c></rc>
    <rc><c>N </c><c>   1</c></rc>
    <rc><c>N </c><c>   1</c></rc>
    <rc><c>N </c><c>   1</c></rc>
    <rc><c>N </c><c>   1</c></rc>
    <rc><c>N </c><c>   1</c></rc>
    <rc><c>N </c><c>   1</c></rc>
    <rc><c>N </c><c>   1</c></rc>
    <rc><c>N </c><c>   1</c></rc>
    <rc><c>N </c><c>   1</c></rc>
    <rc><c>N </c><c>   1</c></rc>
    <rc><c>N </c><c>   1</c></rc>
    <rc><c>C </c><c>   2</c></rc>
    <rc><c>C </c><c>   2</c></rc>
    <rc><c>C </c><c>   2</c></rc>
    <rc><c>C </c><c>   2</c></rc>
    <rc><c>C </c><c>   2</c></rc>
    <rc><c>C </c><c>   2</c></rc>
    <rc><c>C </c><c>   2</c></rc>
    <rc><c>C </c><c>   2</c></rc>
    <rc><c>C </c><c>   2</c></rc>
    <rc><c>C </c><c>   2</c></rc>
    <rc><c>C </c><c>   2</c></rc>
    <rc><c>C </c><c>   2</c></rc>
    <rc><c>C </c><c>   2</c></rc>
    <rc><c>C </c><c>   2</c></rc>
    <rc><c>C </c><c>   2</c></rc>
    <rc><c>C </c><c>   2</c></rc>
    <rc><c>C </c><c>   2</c></rc>
    <rc><c>C </c><c>   2</c></rc>
    <rc><c>C </c><c>   2</c></rc>
    <rc><c>C </c><c>   2</c></rc>
    <rc><c>C </c><c>   2</c></rc>
    <rc><c>C </c><c>   2</c></rc>
    <rc><c>C </c><c>   2</c></rc>
    <rc><c>C </c><c>   2</c></rc>
    <rc><c>H </c><c>   3</c></rc>
    <rc><c>H </c><c>   3</c></rc>
    <rc><c>H </c><c>   3</c></rc>
    <rc><c>H </c><c>   3</c></rc>
    <rc><c>H </c><c>   3</c></rc>
    <rc><c>H </c><c>   3</c></rc>
    <rc><c>H </c><c>   3</c></rc>
    <rc><c>H </c><c>   3</c></rc>
    <rc><c>H </c><c>   3</c></rc>
    <rc><c>H </c><c>   3</c></rc>
    <rc><c>H </c><c>   3</c></rc>
    <rc><c>H </c><c>   3</c></rc>
    <rc><c>O </c><c>   4</c></rc>
    <rc><c>O </c><c>   4</c></rc>
    <rc><c>O </c><c>   4</c></rc>
    <rc><c>O </c><c>   4</c></rc>
    <rc><c>O </c><c>   4</c></rc>
    <rc><c>O </c><c>   4</c></rc>
   </set>
  </array>
  <array name="atomtypes" >
   <dimension dim="1">type</dimension>
   <field type="int">atomspertype</field>
   <field type="string">element</field>
   <field>mass</field>
   <field>valence</field>
   <field type="string">pseudopotential</field>
   <set>
    <rc><c>  18</c><c>N </c><c>     14.00100000</c><c>      5.00000000</c><c>  PAW_PBE N 08Apr2002                   </c></rc>
    <rc><c>  24</c><c>C </c><c>     12.01100000</c><c>      4.00000000</c><c>  PAW_PBE C 08Apr2002                   </c></rc>
    <rc><c>  12</c><c>H </c><c>      1.00000000</c><c>      1.00000000</c><c>  PAW_PBE H 15Jun2001                   </c></rc>
    <rc><c>   6</c><c>O </c><c>     16.00000000</c><c>      6.00000000</c><c>  PAW_PBE O 08Apr2002                   </c></rc>
   </set>
  </array>
 </atominfo>
 <structure name="initialpos" >
  <crystal>
   <varray name="basis" >
    <v>      21.50596724      -0.01567846       0.00000000 </v>
    <v>     -10.76661723      18.65515962       0.00000000 </v>
    <v>       0.00000000       0.00000000      20.00000000 </v>
   </varray>
   <i name="volume">   8020.56895319 </i>
   <varray name="rec_basis" >
    <v>       0.04651829       0.02684751       0.00000000 </v>
    <v>       0.00003910       0.05362704       0.00000000 </v>
    <v>       0.00000000       0.00000000       0.05000000 </v>
   </varray>
  </crystal>
  <varray name="positions" >
   <v>       0.31868831       0.59700613       0.47115408 </v>
   <v>       0.39532841       0.72359348       0.47187799 </v>
   <v>       0.26856260       0.67344445       0.47248849 </v>
   <v>       0.67644422       0.40142747       0.54696246 </v>
   <v>       0.59024676       0.27710657       0.54550619 </v>
   <v>       0.71468439       0.31536703       0.54656629 </v>
   <v>       0.55537698       0.14176369       0.53305776 </v>
   <v>       0.57594108       0.43631077       0.53408325 </v>
   <v>       0.85037548       0.41592612       0.53597603 </v>
   <v>       0.55255065       0.03263576       0.51377127 </v>
   <v>       0.51633504       0.96302454       0.50123144 </v>
   <v>       0.41567099       0.85535078       0.48310213 </v>
   <v>       0.46978903       0.43965285       0.51440570 </v>
   <v>       0.43660117       0.47599338       0.50131455 </v>
   <v>       0.43004172       0.57665340       0.48230011 </v>
   <v>       0.95950225       0.52194929       0.51498501 </v>
   <v>       0.02901929       0.55516501       0.50140996 </v>
   <v>       0.13657146       0.56205515       0.48246901 </v>
   <v>       0.38364745       0.65652785       0.47159212 </v>
   <v>       0.33574553       0.72891225       0.47241417 </v>
   <v>       0.44932405       0.64729539       0.47537940 </v>
   <v>       0.34494959       0.80370706       0.47630331 </v>
   <v>       0.18821894       0.54299497       0.47592193 </v>
   <v>       0.60866820       0.34628601       0.54595719 </v>
   <v>       0.64540531       0.26454042       0.54577721 </v>
   <v>       0.54775461       0.36338833       0.54223409 </v>
   <v>       0.62827074       0.18660321       0.54220905 </v>
   <v>       0.80539504       0.44391381       0.54390116 </v>
   <v>       0.40351499       0.96282376       0.49968084 </v>
   <v>       0.44130710       0.03524855       0.51328713 </v>
   <v>       0.51651074       0.06837803       0.52023851 </v>
   <v>       0.54952670       0.58844373       0.50046689 </v>
   <v>       0.58392892       0.55050708       0.51454623 </v>
   <v>       0.54161629       0.47538752       0.52118733 </v>
   <v>       0.02916275       0.44268980       0.50154448 </v>
   <v>       0.95684273       0.40825385       0.51612245 </v>
   <v>       0.92376347       0.45032691       0.52258496 </v>
   <v>       0.26317435       0.60861512       0.47196409 </v>
   <v>       0.72729270       0.38303907       0.54687489 </v>
   <v>       0.44437477       0.92837140       0.49456413 </v>
   <v>       0.47416999       0.54782187       0.49454831 </v>
   <v>       0.06360089       0.51784883       0.49499398 </v>
   <v>       0.41389179       0.06610345       0.51832540 </v>
   <v>       0.34551740       0.93298892       0.49328696 </v>
   <v>       0.52731473       0.16863268       0.53398043 </v>
   <v>       0.64221080       0.57775302       0.52016766 </v>
   <v>       0.57787269       0.64637978       0.49424598 </v>
   <v>       0.63093106       0.46427982       0.53569088 </v>
   <v>       0.92601932       0.35010126       0.52221913 </v>
   <v>       0.05893672       0.41449706       0.49545604 </v>
   <v>       0.82335708       0.36100482       0.53707394 </v>
   <v>       0.45229129       0.83811024       0.48236108 </v>
   <v>       0.37608855       0.54020857       0.48144771 </v>
   <v>       0.15393692       0.61589667       0.48156161 </v>
   <v>       0.29324354       0.81334723       0.47494550 </v>
   <v>       0.17844348       0.48167265       0.47496771 </v>
   <v>       0.51080612       0.69881909       0.47405839 </v>
   <v>       0.67539749       0.17090518       0.54620429 </v>
   <v>       0.82103741       0.50669818       0.54711615 </v>
   <v>       0.48483192       0.31621566       0.54520526 </v>
  </varray>
 </structure>
 <calculation>
  <scstep>
   <time name="dav">   95.28   96.09</time>
   <time name="total">   95.43   96.25</time>
   <energy>
    <i name="alphaZ">     30.60322844 </i>
    <i name="ewald">  26260.44236557 </i>
    <i name="hartreedc"> -35324.13711276 </i>
    <i name="XCdc">    899.67145102 </i>
    <i name="pawpsdc">  22880.48014701 </i>
    <i name="pawaedc"> -22934.13771246 </i>
    <i name="eentropy">     -0.00000000 </i>
    <i name="bandstr">  -3294.78065720 </i>
    <i name="atom">  11037.16517653 </i>
    <i name="e_fr_energy">   -444.69311386 </i>
    <i name="e_wo_entrp">   -444.69311386 </i>
    <i name="e_0_energy">   -444.69311386 </i>
   </energy>
  </scstep>
  <scstep>
   <time name="dav">  110.33  111.28</time>
   <time name="total">  110.33  111.29</time>
   <energy>
    <i name="e_fr_energy">   -445.36145057 </i>
    <i name="e_wo_entrp">   -445.36145057 </i>
    <i name="e_0_energy">   -445.36145057 </i>
   </energy>
  </scstep>
  <scstep>
   <time name="dav">  119.42  120.40</time>
   <time name="total">  119.42  120.41</time>
   <energy>
    <i name="e_fr_energy">   -445.37602343 </i>
    <i name="e_wo_entrp">   -445.37602343 </i>
    <i name="e_0_energy">   -445.37602343 </i>
   </energy>
  </scstep>
  <scstep>
   <time name="dav">  108.61  109.52</time>
   <time name="total">  108.61  109.53</time>
   <energy>
    <i name="e_fr_energy">   -445.37632500 </i>
    <i name="e_wo_entrp">   -445.37632500 </i>
    <i name="e_0_energy">   -445.37632500 </i>
   </energy>
  </scstep>
  <scstep>
   <time name="dav">   97.61   98.40</time>
   <time name="total">   97.61   98.41</time>
   <energy>
    <i name="e_fr_energy">   -445.37633555 </i>
    <i name="e_wo_entrp">   -445.37633555 </i>
    <i name="e_0_energy">   -445.37633555 </i>
   </energy>
  </scstep>
  <scstep>
   <time name="dav">   83.26   83.93</time>
   <time name="total">   83.27   83.94</time>
   <energy>
    <i name="alphaZ">     30.60322844 </i>
    <i name="ewald">  26260.44236557 </i>
    <i name="hartreedc"> -35324.13711276 </i>
    <i name="XCdc">    899.67145102 </i>
    <i name="pawpsdc">  22880.48014701 </i>
    <i name="pawaedc"> -22934.13771246 </i>
    <i name="eentropy">     -0.00000000 </i>
    <i name="bandstr">  -3295.46387941 </i>
    <i name="atom">  11037.16517653 </i>
    <i name="e_fr_energy">   -445.37633607 </i>
    <i name="e_wo_entrp">   -445.37633607 </i>
    <i name="e_0_energy">   -445.37633607 </i>
   </energy>
  </scstep>
  <structure>
   <crystal>
    <varray name="basis" >
     <v>      21.50596724      -0.01567846       0.00000000 </v>
     <v>     -10.76661723      18.65515962       0.00000000 </v>
     <v>       0.00000000       0.00000000      20.00000000 </v>
    </varray>
    <i name="volume">   8020.56895319 </i>
    <varray name="rec_basis" >
     <v>       0.04651829       0.02684751       0.00000000 </v>
     <v>       0.00003910       0.05362704       0.00000000 </v>
     <v>       0.00000000       0.00000000       0.05000000 </v>
    </varray>
   </crystal>
   <varray name="positions" >
    <v>       0.31868831       0.59700613       0.47115408 </v>
    <v>       0.39532841       0.72359348       0.47187799 </v>
    <v>       0.26856260       0.67344445       0.47248849 </v>
    <v>       0.67644422       0.40142747       0.54696246 </v>
    <v>       0.59024676       0.27710657       0.54550619 </v>
    <v>       0.71468439       0.31536703       0.54656629 </v>
    <v>       0.55537698       0.14176369       0.53305776 </v>
    <v>       0.57594108       0.43631077       0.53408325 </v>
    <v>       0.85037548       0.41592612       0.53597603 </v>
    <v>       0.55255065       0.03263576       0.51377127 </v>
    <v>       0.51633504       0.96302454       0.50123144 </v>
    <v>       0.41567099       0.85535078       0.48310213 </v>
    <v>       0.46978903       0.43965285       0.51440570 </v>
    <v>       0.43660117       0.47599338       0.50131455 </v>
    <v>       0.43004172       0.57665340       0.48230011 </v>
    <v>       0.95950225       0.52194929       0.51498501 </v>
    <v>       0.02901929       0.55516501       0.50140996 </v>
    <v>       0.13657146       0.56205515       0.48246901 </v>
    <v>       0.38364745       0.65652785       0.47159212 </v>
    <v>       0.33574553       0.72891225       0.47241417 </v>
    <v>       0.44932405       0.64729539       0.47537940 </v>
    <v>       0.34494959       0.80370706       0.47630331 </v>
    <v>       0.18821894       0.54299497       0.47592193 </v>
    <v>       0.60866820       0.34628601       0.54595719 </v>
    <v>       0.64540531       0.26454042       0.54577721 </v>
    <v>       0.54775461       0.36338833       0.54223409 </v>
    <v>       0.62827074       0.18660321       0.54220905 </v>
    <v>       0.80539504       0.44391381       0.54390116 </v>
    <v>       0.40351499       0.96282376       0.49968084 </v>
    <v>       0.44130710       0.03524855       0.51328713 </v>
    <v>       0.51651074       0.06837803       0.52023851 </v>
    <v>       0.54952670       0.58844373       0.50046689 </v>
    <v>       0.58392892       0.55050708       0.51454623 </v>
    <v>       0.54161629       0.47538752       0.52118733 </v>
    <v>       0.02916275       0.44268980       0.50154448 </v>
    <v>       0.95684273       0.40825385       0.51612245 </v>
    <v>       0.92376347       0.45032691       0.52258496 </v>
    <v>       0.26317435       0.60861512       0.47196409 </v>
    <v>       0.72729270       0.38303907       0.54687489 </v>
    <v>       0.44437477       0.92837140       0.49456413 </v>
    <v>       0.47416999       0.54782187       0.49454831 </v>
    <v>       0.06360089       0.51784883       0.49499398 </v>
    <v>       0.41389179       0.06610345       0.51832540 </v>
    <v>       0.34551740       0.93298892       0.49328696 </v>
    <v>       0.52731473       0.16863268       0.53398043 </v>
    <v>       0.64221080       0.57775302       0.52016766 </v>
    <v>       0.57787269       0.64637978       0.49424598 </v>
    <v>       0.63093106       0.46427982       0.53569088 </v>
    <v>       0.92601932       0.35010126       0.52221913 </v>
    <v>       0.05893672       0.41449706       0.49545604 </v>
    <v>       0.82335708       0.36100482       0.53707394 </v>
    <v>       0.45229129       0.83811024       0.48236108 </v>
    <v>       0.37608855       0.54020857       0.48144771 </v>
    <v>       0.15393692       0.61589667       0.48156161 </v>
    <v>       0.29324354       0.81334723       0.47494550 </v>
    <v>       0.17844348       0.48167265       0.47496771 </v>
    <v>       0.51080612       0.69881909       0.47405839 </v>
    <v>       0.67539749       0.17090518       0.54620429 </v>
    <v>       0.82103741       0.50669818       0.54711615 </v>
    <v>       0.48483192       0.31621566       0.54520526 </v>
   </varray>
  </structure>
  <varray name="forces" >
   <v>       0.00538440      -0.00378970       0.00173733 </v>
   <v>       0.00040677       0.00179615      -0.00056787 </v>
   <v>      -0.00337229      -0.00065238       0.00162340 </v>
   <v>      -0.00310361      -0.00240066       0.00155258 </v>
   <v>       0.00077373       0.00424682      -0.00014143 </v>
   <v>      -0.00262234      -0.00502841      -0.00264660 </v>
   <v>      -0.00127856      -0.00376998      -0.00020812 </v>
   <v>      -0.00407682      -0.00034105      -0.00067767 </v>
   <v>       0.00055918      -0.00155742      -0.00234719 </v>
   <v>      -0.00385381       0.00584122      -0.00225640 </v>
   <v>       0.00303970      -0.00289828      -0.00283563 </v>
   <v>      -0.00120090       0.00272197       0.00084331 </v>
   <v>       0.00146014      -0.00062849       0.00159087 </v>
   <v>      -0.00132622      -0.00200440      -0.00014250 </v>
   <v>       0.00546587      -0.00119133       0.00087014 </v>
   <v>       0.00162059       0.00524425       0.00386703 </v>
   <v>       0.00167659       0.00074404       0.00149822 </v>
   <v>       0.00152917      -0.00222990       0.00134209 </v>
   <v>      -0.00043350       0.00023007      -0.00008505 </v>
   <v>       0.00098417       0.00103249       0.00109821 </v>
   <v>       0.00303017       0.00481494      -0.00014681 </v>
   <v>      -0.00145041      -0.00142283       0.00348364 </v>
   <v>      -0.00240853       0.00131410       0.00117290 </v>
   <v>      -0.00449679      -0.00164030      -0.00058189 </v>
   <v>      -0.00029571       0.00257004      -0.00183753 </v>
   <v>       0.00649344      -0.00182402       0.00114393 </v>
   <v>       0.00418345      -0.00141406      -0.00061627 </v>
   <v>      -0.00346276       0.00048312      -0.00227987 </v>
   <v>      -0.00518300       0.00307017       0.00152155 </v>
   <v>      -0.00018096      -0.00134781      -0.00061673 </v>
   <v>       0.00332141       0.00356647      -0.00028815 </v>
   <v>      -0.00108532      -0.00149840      -0.00168615 </v>
   <v>      -0.00072944      -0.00066455      -0.00117631 </v>
   <v>       0.00077694       0.00031809       0.00114305 </v>
   <v>      -0.00113476      -0.00231116       0.00079974 </v>
   <v>       0.00669381      -0.00257904      -0.00292057 </v>
   <v>      -0.00768621      -0.00019433      -0.00050088 </v>
   <v>      -0.00166068      -0.00096451       0.00203022 </v>
   <v>       0.00569693      -0.00012959      -0.00162514 </v>
   <v>       0.00074439      -0.00556031      -0.00040333 </v>
   <v>       0.00037631       0.00455875      -0.00195156 </v>
   <v>       0.00025010       0.00682134       0.00134616 </v>
   <v>      -0.00162673       0.00116655      -0.00025070 </v>
   <v>       0.00163715      -0.00107456       0.00113822 </v>
   <v>       0.00107316       0.00276387      -0.00021844 </v>
   <v>       0.00150553       0.00167798      -0.00222116 </v>
   <v>       0.00057521      -0.00035739      -0.00027101 </v>
   <v>       0.00103949       0.00016348      -0.00025777 </v>
   <v>       0.00025973       0.00114838       0.00029007 </v>
   <v>       0.00001175       0.00148328      -0.00113963 </v>
   <v>       0.00091361       0.00212444       0.00305882 </v>
   <v>      -0.00000375       0.00044629       0.00082541 </v>
   <v>      -0.00212358      -0.00082687       0.00034801 </v>
   <v>       0.00066438       0.00045871       0.00008929 </v>
   <v>       0.00087774      -0.00081109       0.00743297 </v>
   <v>       0.00113192      -0.00222733      -0.00174175 </v>
   <v>      -0.00245417      -0.00222071      -0.00102549 </v>
   <v>      -0.00310354      -0.00015272      -0.00176062 </v>
   <v>      -0.00209853      -0.00323605      -0.00280777 </v>
   <v>      -0.00170402      -0.00185742      -0.00161315 </v>
  </varray>
  <varray name="stress" >
   <v>      -0.01837145       0.00119533       0.00244159 </v>
   <v>       0.00119532      -0.00851940      -0.00454069 </v>
   <v>       0.00244159      -0.00454069      -0.23931382 </v>
  </varray>
  <energy>
   <i name="e_fr_energy">   -446.50491241 </i>
   <i name="e_wo_entrp">   -446.50491241 </i>
   <i name="e_0_energy">     -0.00000000 </i>
  </energy>
  <time name="totalsc">  698.44  704.41</time>
  <eigenvalues>
   <array>
    <dimension dim="1">band</dimension>
    <dimension dim="2">kpoint</dimension>
    <dimension dim="3">spin</dimension>
    <field>eigene</field>
    <field>occ</field>
    <set>
     <set comment="spin 1">
      <set comment="kpoint 1">
       <r>  -26.9943    1.0000 </r>
       <r>  -26.9541    1.0000 </r>
       <r>  -26.6218    1.0000 </r>
       <r>  -26.6198    1.0000 </r>
       <r>  -26.4791    1.0000 </r>
       <r>  -26.4774    1.0000 </r>
       <r>  -26.2148    1.0000 </r>
       <r>  -26.1093    1.0000 </r>
       <r>  -25.8544    1.0000 </r>
       <r>  -25.8510    1.0000 </r>
       <r>  -25.8121    1.0000 </r>
       <r>  -24.3347    1.0000 </r>
       <r>  -24.3339    1.0000 </r>
       <r>  -24.2448    1.0000 </r>
       <r>  -23.9615    1.0000 </r>
       <r>  -23.9607    1.0000 </r>
       <r>  -23.7400    1.0000 </r>
       <r>  -23.3979    1.0000 </r>
       <r>  -23.3961    1.0000 </r>
       <r>  -23.2552    1.0000 </r>
       <r>  -23.2523    1.0000 </r>
       <r>  -20.6223    1.0000 </r>
       <r>  -20.6197    1.0000 </r>
       <r>  -20.6132    1.0000 </r>
       <r>  -20.4940    1.0000 </r>
       <r>  -20.4925    1.0000 </r>
       <r>  -20.4530    1.0000 </r>
       <r>  -18.7871    1.0000 </r>
       <r>  -18.7855    1.0000 </r>
       <r>  -18.3417    1.0000 </r>
       <r>  -18.3398    1.0000 </r>
       <r>  -17.9531    1.0000 </r>
       <r>  -17.2882    1.0000 </r>
       <r>  -17.0459    1.0000 </r>
       <r>  -17.0444    1.0000 </r>
       <r>  -16.6921    1.0000 </r>
       <r>  -16.6897    1.0000 </r>
       <r>  -16.1653    1.0000 </r>
       <r>  -15.5091    1.0000 </r>
       <r>  -15.3366    1.0000 </r>
       <r>  -15.3348    1.0000 </r>
       <r>  -14.8567    1.0000 </r>
       <r>  -14.7858    1.0000 </r>
       <r>  -14.6702    1.0000 </r>
       <r>  -14.6678    1.0000 </r>
       <r>  -14.5794    1.0000 </r>
       <r>  -14.0359    1.0000 </r>
       <r>  -14.0335    1.0000 </r>
       <r>  -13.9806    1.0000 </r>
       <r>  -13.5961    1.0000 </r>
       <r>  -13.5933    1.0000 </r>
       <r>  -13.1724    1.0000 </r>
       <r>  -12.9188    1.0000 </r>
       <r>  -12.5692    1.0000 </r>
       <r>  -12.5674    1.0000 </r>
       <r>  -12.5553    1.0000 </r>
       <r>  -12.5354    1.0000 </r>
       <r>  -12.5034    1.0000 </r>
       <r>  -12.2052    1.0000 </r>
       <r>  -12.2028    1.0000 </r>
       <r>  -12.0386    1.0000 </r>
       <r>  -12.0360    1.0000 </r>
       <r>  -11.6663    1.0000 </r>
       <r>  -11.6635    1.0000 </r>
       <r>  -11.4160    1.0000 </r>
       <r>  -11.2367    1.0000 </r>
       <r>  -11.2352    1.0000 </r>
       <r>  -10.9536    1.0000 </r>
       <r>  -10.8626    1.0000 </r>
       <r>  -10.8614    1.0000 </r>
       <r>  -10.6064    1.0000 </r>
       <r>  -10.5762    1.0000 </r>
       <r>  -10.5529    1.0000 </r>
       <r>  -10.5498    1.0000 </r>
       <r>  -10.5159    1.0000 </r>
       <r>  -10.5124    1.0000 </r>
       <r>  -10.4049    1.0000 </r>
       <r>  -10.2904    1.0000 </r>
       <r>  -10.2284    1.0000 </r>
       <r>  -10.2275    1.0000 </r>
       <r>  -10.2002    1.0000 </r>
       <r>  -10.1988    1.0000 </r>
       <r>   -9.9213    1.0000 </r>
       <r>   -9.9010    1.0000 </r>
       <r>   -9.8542    1.0000 </r>
       <r>   -9.2837    1.0000 </r>
       <r>   -9.2820    1.0000 </r>
       <r>   -8.8034    1.0000 </r>
       <r>   -8.8023    1.0000 </r>
       <r>   -8.6930    1.0000 </r>
       <r>   -8.4611    1.0000 </r>
       <r>   -8.4605    1.0000 </r>
       <r>   -8.1208    1.0000 </r>
       <r>   -8.1184    1.0000 </r>
       <r>   -8.0740    1.0000 </r>
       <r>   -7.9755    1.0000 </r>
       <r>   -7.9678    1.0000 </r>
       <r>   -7.9660    1.0000 </r>
       <r>   -7.3650    1.0000 </r>
       <r>   -7.3598    1.0000 </r>
       <r>   -7.3196    1.0000 </r>
       <r>   -7.2975    1.0000 </r>
       <r>   -7.2961    1.0000 </r>
       <r>   -7.2857    1.0000 </r>
       <r>   -7.2830    1.0000 </r>
       <r>   -6.5991    1.0000 </r>
       <r>   -6.4637    1.0000 </r>
       <r>   -6.3034    1.0000 </r>
       <r>   -6.3028    1.0000 </r>
       <r>   -6.2233    1.0000 </r>
       <r>   -6.2217    1.0000 </r>
       <r>   -5.8842    1.0000 </r>
       <r>   -5.8840    1.0000 </r>
       <r>   -5.8611    1.0000 </r>
       <r>   -5.2761    1.0000 </r>
       <r>   -5.2426    1.0000 </r>
       <r>   -5.2417    1.0000 </r>
       <r>   -3.9503    0.0000 </r>
       <r>   -3.9481    0.0000 </r>
       <r>   -3.7207    0.0000 </r>
       <r>   -3.7189    0.0000 </r>
       <r>   -2.5547    0.0000 </r>
       <r>   -2.5454    0.0000 </r>
       <r>   -2.5197    0.0000 </r>
       <r>   -2.5192    0.0000 </r>
       <r>   -1.7433    0.0000 </r>
       <r>   -1.5841    0.0000 </r>
       <r>   -1.5826    0.0000 </r>
       <r>   -0.7084    0.0000 </r>
       <r>   -0.5827    0.0000 </r>
       <r>   -0.3953    0.0000 </r>
       <r>   -0.1540    0.0000 </r>
       <r>   -0.1535    0.0000 </r>
       <r>    0.0518    0.0000 </r>
       <r>    0.0552    0.0000 </r>
       <r>    0.2641    0.0000 </r>
       <r>    0.2954    0.0000 </r>
       <r>    0.2980    0.0000 </r>
       <r>    0.2998    0.0000 </r>
       <r>    0.4749    0.0000 </r>
       <r>    0.4769    0.0000 </r>
       <r>    0.4787    0.0000 </r>
       <r>    0.5832    0.0000 </r>
       <r>    0.7141    0.0000 </r>
       <r>    0.7147    0.0000 </r>
       <r>    0.7725    0.0000 </r>
       <r>    0.7750    0.0000 </r>
       <r>    0.8565    0.0000 </r>
       <r>    0.9223    0.0000 </r>
       <r>    0.9770    0.0000 </r>
       <r>    0.9784    0.0000 </r>
       <r>    1.0150    0.0000 </r>
       <r>    1.0176    0.0000 </r>
       <r>    1.0207    0.0000 </r>
       <r>    1.0725    0.0000 </r>
       <r>    1.0730    0.0000 </r>
       <r>    1.1110    0.0000 </r>
       <r>    1.1132    0.0000 </r>
       <r>    1.1201    0.0000 </r>
       <r>    1.1521    0.0000 </r>
      </set>
      <set comment="kpoint 2">
       <r>  -26.9943    1.0000 </r>
       <r>  -26.9541    1.0000 </r>
       <r>  -26.6218    1.0000 </r>
       <r>  -26.6197    1.0000 </r>
       <r>  -26.4792    1.0000 </r>
       <r>  -26.4774    1.0000 </r>
       <r>  -26.2147    1.0000 </r>
       <r>  -26.1094    1.0000 </r>
       <r>  -25.8544    1.0000 </r>
       <r>  -25.8510    1.0000 </r>
       <r>  -25.8122    1.0000 </r>
       <r>  -24.3347    1.0000 </r>
       <r>  -24.3338    1.0000 </r>
       <r>  -24.2450    1.0000 </r>
       <r>  -23.9615    1.0000 </r>
       <r>  -23.9603    1.0000 </r>
       <r>  -23.7404    1.0000 </r>
       <r>  -23.3979    1.0000 </r>
       <r>  -23.3958    1.0000 </r>
       <r>  -23.2552    1.0000 </r>
       <r>  -23.2524    1.0000 </r>
       <r>  -20.6223    1.0000 </r>
       <r>  -20.6197    1.0000 </r>
       <r>  -20.6132    1.0000 </r>
       <r>  -20.4940    1.0000 </r>
       <r>  -20.4925    1.0000 </r>
       <r>  -20.4531    1.0000 </r>
       <r>  -18.7870    1.0000 </r>
       <r>  -18.7852    1.0000 </r>
       <r>  -18.3429    1.0000 </r>
       <r>  -18.3402    1.0000 </r>
       <r>  -17.9514    1.0000 </r>
       <r>  -17.2888    1.0000 </r>
       <r>  -17.0459    1.0000 </r>
       <r>  -17.0444    1.0000 </r>
       <r>  -16.6923    1.0000 </r>
       <r>  -16.6902    1.0000 </r>
       <r>  -16.1640    1.0000 </r>
       <r>  -15.5104    1.0000 </r>
       <r>  -15.3366    1.0000 </r>
       <r>  -15.3340    1.0000 </r>
       <r>  -14.8569    1.0000 </r>
       <r>  -14.7857    1.0000 </r>
       <r>  -14.6702    1.0000 </r>
       <r>  -14.6677    1.0000 </r>
       <r>  -14.5795    1.0000 </r>
       <r>  -14.0384    1.0000 </r>
       <r>  -14.0351    1.0000 </r>
       <r>  -13.9761    1.0000 </r>
       <r>  -13.5962    1.0000 </r>
       <r>  -13.5935    1.0000 </r>
       <r>  -13.1721    1.0000 </r>
       <r>  -12.9193    1.0000 </r>
       <r>  -12.5693    1.0000 </r>
       <r>  -12.5675    1.0000 </r>
       <r>  -12.5552    1.0000 </r>
       <r>  -12.5354    1.0000 </r>
       <r>  -12.5035    1.0000 </r>
       <r>  -12.2048    1.0000 </r>
       <r>  -12.2025    1.0000 </r>
       <r>  -12.0388    1.0000 </r>
       <r>  -12.0362    1.0000 </r>
       <r>  -11.6663    1.0000 </r>
       <r>  -11.6633    1.0000 </r>
       <r>  -11.4170    1.0000 </r>
       <r>  -11.2365    1.0000 </r>
       <r>  -11.2341    1.0000 </r>
       <r>  -10.9535    1.0000 </r>
       <r>  -10.8626    1.0000 </r>
       <r>  -10.8615    1.0000 </r>
       <r>  -10.6110    1.0000 </r>
       <r>  -10.5775    1.0000 </r>
       <r>  -10.5506    1.0000 </r>
       <r>  -10.5496    1.0000 </r>
       <r>  -10.5158    1.0000 </r>
       <r>  -10.5092    1.0000 </r>
       <r>  -10.4047    1.0000 </r>
       <r>  -10.2905    1.0000 </r>
       <r>  -10.2283    1.0000 </r>
       <r>  -10.2275    1.0000 </r>
       <r>  -10.2002    1.0000 </r>
       <r>  -10.1988    1.0000 </r>
       <r>   -9.9213    1.0000 </r>
       <r>   -9.9011    1.0000 </r>
       <r>   -9.8550    1.0000 </r>
       <r>   -9.2833    1.0000 </r>
       <r>   -9.2816    1.0000 </r>
       <r>   -8.8048    1.0000 </r>
       <r>   -8.8026    1.0000 </r>
       <r>   -8.6916    1.0000 </r>
       <r>   -8.4611    1.0000 </r>
       <r>   -8.4607    1.0000 </r>
       <r>   -8.1208    1.0000 </r>
       <r>   -8.1184    1.0000 </r>
       <r>   -8.0740    1.0000 </r>
       <r>   -7.9755    1.0000 </r>
       <r>   -7.9679    1.0000 </r>
       <r>   -7.9660    1.0000 </r>
       <r>   -7.3649    1.0000 </r>
       <r>   -7.3598    1.0000 </r>
       <r>   -7.3197    1.0000 </r>
       <r>   -7.2976    1.0000 </r>
       <r>   -7.2962    1.0000 </r>
       <r>   -7.2856    1.0000 </r>
       <r>   -7.2829    1.0000 </r>
       <r>   -6.5991    1.0000 </r>
       <r>   -6.4637    1.0000 </r>
       <r>   -6.3034    1.0000 </r>
       <r>   -6.3028    1.0000 </r>
       <r>   -6.2233    1.0000 </r>
       <r>   -6.2217    1.0000 </r>
       <r>   -5.8842    1.0000 </r>
       <r>   -5.8840    1.0000 </r>
       <r>   -5.8611    1.0000 </r>
       <r>   -5.2761    1.0000 </r>
       <r>   -5.2426    1.0000 </r>
       <r>   -5.2417    1.0000 </r>
       <r>   -3.9501    0.0000 </r>
       <r>   -3.9480    0.0000 </r>
       <r>   -3.7210    0.0000 </r>
       <r>   -3.7190    0.0000 </r>
       <r>   -2.5547    0.0000 </r>
       <r>   -2.5456    0.0000 </r>
       <r>   -2.5196    0.0000 </r>
       <r>   -2.5183    0.0000 </r>
       <r>   -1.7488    0.0000 </r>
       <r>   -1.5841    0.0000 </r>
       <r>   -1.5771    0.0000 </r>
       <r>   -0.7096    0.0000 </r>
       <r>   -0.5827    0.0000 </r>
       <r>   -0.3956    0.0000 </r>
       <r>   -0.1540    0.0000 </r>
       <r>   -0.1530    0.0000 </r>
       <r>    0.0518    0.0000 </r>
       <r>    0.0559    0.0000 </r>
       <r>    0.2616    0.0000 </r>
       <r>    0.2955    0.0000 </r>
       <r>    0.2986    0.0000 </r>
       <r>    0.3023    0.0000 </r>
       <r>    0.4691    0.0000 </r>
       <r>    0.4754    0.0000 </r>
       <r>    0.4854    0.0000 </r>
       <r>    0.5833    0.0000 </r>
       <r>    0.7133    0.0000 </r>
       <r>    0.7144    0.0000 </r>
       <r>    0.7722    0.0000 </r>
       <r>    0.7744    0.0000 </r>
       <r>    0.8568    0.0000 </r>
       <r>    0.9210    0.0000 </r>
       <r>    0.9756    0.0000 </r>
       <r>    0.9795    0.0000 </r>
       <r>    1.0086    0.0000 </r>
       <r>    1.0193    0.0000 </r>
       <r>    1.0241    0.0000 </r>
       <r>    1.0723    0.0000 </r>
       <r>    1.0754    0.0000 </r>
       <r>    1.1081    0.0000 </r>
       <r>    1.1117    0.0000 </r>
       <r>    1.1276    0.0000 </r>
       <r>    1.1540    0.0000 </r>
      </set>
      <set comment="kpoint 3">
       <r>  -26.9942    1.0000 </r>
       <r>  -26.9541    1.0000 </r>
       <r>  -26.6217    1.0000 </r>
       <r>  -26.6197    1.0000 </r>
       <r>  -26.4793    1.0000 </r>
       <r>  -26.4775    1.0000 </r>
       <r>  -26.2143    1.0000 </r>
       <r>  -26.1097    1.0000 </r>
       <r>  -25.8544    1.0000 </r>
       <r>  -25.8508    1.0000 </r>
       <r>  -25.8123    1.0000 </r>
       <r>  -24.3346    1.0000 </r>
       <r>  -24.3336    1.0000 </r>
       <r>  -24.2456    1.0000 </r>
       <r>  -23.9615    1.0000 </r>
       <r>  -23.9593    1.0000 </r>
       <r>  -23.7416    1.0000 </r>
       <r>  -23.3978    1.0000 </r>
       <r>  -23.3950    1.0000 </r>
       <r>  -23.2553    1.0000 </r>
       <r>  -23.2528    1.0000 </r>
       <r>  -20.6223    1.0000 </r>
       <r>  -20.6197    1.0000 </r>
       <r>  -20.6133    1.0000 </r>
       <r>  -20.4940    1.0000 </r>
       <r>  -20.4923    1.0000 </r>
       <r>  -20.4532    1.0000 </r>
       <r>  -18.7867    1.0000 </r>
       <r>  -18.7842    1.0000 </r>
       <r>  -18.3472    1.0000 </r>
       <r>  -18.3404    1.0000 </r>
       <r>  -17.9462    1.0000 </r>
       <r>  -17.2907    1.0000 </r>
       <r>  -17.0459    1.0000 </r>
       <r>  -17.0444    1.0000 </r>
       <r>  -16.6934    1.0000 </r>
       <r>  -16.6912    1.0000 </r>
       <r>  -16.1603    1.0000 </r>
       <r>  -15.5142    1.0000 </r>
       <r>  -15.3365    1.0000 </r>
       <r>  -15.3317    1.0000 </r>
       <r>  -14.8575    1.0000 </r>
       <r>  -14.7854    1.0000 </r>
       <r>  -14.6702    1.0000 </r>
       <r>  -14.6673    1.0000 </r>
       <r>  -14.5799    1.0000 </r>
       <r>  -14.0481    1.0000 </r>
       <r>  -14.0352    1.0000 </r>
       <r>  -13.9653    1.0000 </r>
       <r>  -13.5964    1.0000 </r>
       <r>  -13.5939    1.0000 </r>
       <r>  -13.1714    1.0000 </r>
       <r>  -12.9208    1.0000 </r>
       <r>  -12.5696    1.0000 </r>
       <r>  -12.5677    1.0000 </r>
       <r>  -12.5549    1.0000 </r>
       <r>  -12.5354    1.0000 </r>
       <r>  -12.5038    1.0000 </r>
       <r>  -12.2038    1.0000 </r>
       <r>  -12.2016    1.0000 </r>
       <r>  -12.0394    1.0000 </r>
       <r>  -12.0366    1.0000 </r>
       <r>  -11.6663    1.0000 </r>
       <r>  -11.6627    1.0000 </r>
       <r>  -11.4201    1.0000 </r>
       <r>  -11.2364    1.0000 </r>
       <r>  -11.2303    1.0000 </r>
       <r>  -10.9532    1.0000 </r>
       <r>  -10.8627    1.0000 </r>
       <r>  -10.8618    1.0000 </r>
       <r>  -10.6230    1.0000 </r>
       <r>  -10.5791    1.0000 </r>
       <r>  -10.5500    1.0000 </r>
       <r>  -10.5465    1.0000 </r>
       <r>  -10.5158    1.0000 </r>
       <r>  -10.4997    1.0000 </r>
       <r>  -10.4040    1.0000 </r>
       <r>  -10.2909    1.0000 </r>
       <r>  -10.2281    1.0000 </r>
       <r>  -10.2274    1.0000 </r>
       <r>  -10.2003    1.0000 </r>
       <r>  -10.1988    1.0000 </r>
       <r>   -9.9213    1.0000 </r>
       <r>   -9.9014    1.0000 </r>
       <r>   -9.8575    1.0000 </r>
       <r>   -9.2828    1.0000 </r>
       <r>   -9.2796    1.0000 </r>
       <r>   -8.8095    1.0000 </r>
       <r>   -8.8027    1.0000 </r>
       <r>   -8.6875    1.0000 </r>
       <r>   -8.4613    1.0000 </r>
       <r>   -8.4610    1.0000 </r>
       <r>   -8.1207    1.0000 </r>
       <r>   -8.1183    1.0000 </r>
       <r>   -8.0741    1.0000 </r>
       <r>   -7.9755    1.0000 </r>
       <r>   -7.9679    1.0000 </r>
       <r>   -7.9660    1.0000 </r>
       <r>   -7.3647    1.0000 </r>
       <r>   -7.3598    1.0000 </r>
       <r>   -7.3199    1.0000 </r>
       <r>   -7.2981    1.0000 </r>
       <r>   -7.2964    1.0000 </r>
       <r>   -7.2853    1.0000 </r>
       <r>   -7.2826    1.0000 </r>
       <r>   -6.5990    1.0000 </r>
       <r>   -6.4639    1.0000 </r>
       <r>   -6.3033    1.0000 </r>
       <r>   -6.3027    1.0000 </r>
       <r>   -6.2233    1.0000 </r>
       <r>   -6.2217    1.0000 </r>
       <r>   -5.8842    1.0000 </r>
       <r>   -5.8839    1.0000 </r>
       <r>   -5.8612    1.0000 </r>
       <r>   -5.2760    1.0000 </r>
       <r>   -5.2427    1.0000 </r>
       <r>   -5.2417    1.0000 </r>
       <r>   -3.9497    0.0000 </r>
       <r>   -3.9475    0.0000 </r>
       <r>   -3.7221    0.0000 </r>
       <r>   -3.7192    0.0000 </r>
       <r>   -2.5547    0.0000 </r>
       <r>   -2.5463    0.0000 </r>
       <r>   -2.5195    0.0000 </r>
       <r>   -2.5153    0.0000 </r>
       <r>   -1.7633    0.0000 </r>
       <r>   -1.5841    0.0000 </r>
       <r>   -1.5623    0.0000 </r>
       <r>   -0.7130    0.0000 </r>
       <r>   -0.5825    0.0000 </r>
       <r>   -0.3966    0.0000 </r>
       <r>   -0.1542    0.0000 </r>
       <r>   -0.1516    0.0000 </r>
       <r>    0.0519    0.0000 </r>
       <r>    0.0582    0.0000 </r>
       <r>    0.2556    0.0000 </r>
       <r>    0.2960    0.0000 </r>
       <r>    0.2998    0.0000 </r>
       <r>    0.3088    0.0000 </r>
       <r>    0.4604    0.0000 </r>
       <r>    0.4754    0.0000 </r>
       <r>    0.4924    0.0000 </r>
       <r>    0.5838    0.0000 </r>
       <r>    0.7109    0.0000 </r>
       <r>    0.7135    0.0000 </r>
       <r>    0.7712    0.0000 </r>
       <r>    0.7726    0.0000 </r>
       <r>    0.8576    0.0000 </r>
       <r>    0.9173    0.0000 </r>
       <r>    0.9707    0.0000 </r>
       <r>    0.9822    0.0000 </r>
       <r>    1.0021    0.0000 </r>
       <r>    1.0185    0.0000 </r>
       <r>    1.0285    0.0000 </r>
       <r>    1.0706    0.0000 </r>
       <r>    1.0826    0.0000 </r>
       <r>    1.1044    0.0000 </r>
       <r>    1.1133    0.0000 </r>
       <r>    1.1396    0.0000 </r>
       <r>    1.1595    0.0000 </r>
      </set>
      <set comment="kpoint 4">
       <r>  -26.9942    1.0000 </r>
       <r>  -26.9542    1.0000 </r>
       <r>  -26.6216    1.0000 </r>
       <r>  -26.6197    1.0000 </r>
       <r>  -26.4796    1.0000 </r>
       <r>  -26.4775    1.0000 </r>
       <r>  -26.2137    1.0000 </r>
       <r>  -26.1102    1.0000 </r>
       <r>  -25.8543    1.0000 </r>
       <r>  -25.8506    1.0000 </r>
       <r>  -25.8125    1.0000 </r>
       <r>  -24.3346    1.0000 </r>
       <r>  -24.3331    1.0000 </r>
       <r>  -24.2466    1.0000 </r>
       <r>  -23.9615    1.0000 </r>
       <r>  -23.9575    1.0000 </r>
       <r>  -23.7436    1.0000 </r>
       <r>  -23.3977    1.0000 </r>
       <r>  -23.3935    1.0000 </r>
       <r>  -23.2556    1.0000 </r>
       <r>  -23.2534    1.0000 </r>
       <r>  -20.6223    1.0000 </r>
       <r>  -20.6197    1.0000 </r>
       <r>  -20.6133    1.0000 </r>
       <r>  -20.4939    1.0000 </r>
       <r>  -20.4921    1.0000 </r>
       <r>  -20.4536    1.0000 </r>
       <r>  -18.7866    1.0000 </r>
       <r>  -18.7822    1.0000 </r>
       <r>  -18.3545    1.0000 </r>
       <r>  -18.3405    1.0000 </r>
       <r>  -17.9380    1.0000 </r>
       <r>  -17.2938    1.0000 </r>
       <r>  -17.0459    1.0000 </r>
       <r>  -17.0443    1.0000 </r>
       <r>  -16.6962    1.0000 </r>
       <r>  -16.6915    1.0000 </r>
       <r>  -16.1543    1.0000 </r>
       <r>  -15.5202    1.0000 </r>
       <r>  -15.3365    1.0000 </r>
       <r>  -15.3281    1.0000 </r>
       <r>  -14.8584    1.0000 </r>
       <r>  -14.7849    1.0000 </r>
       <r>  -14.6703    1.0000 </r>
       <r>  -14.6666    1.0000 </r>
       <r>  -14.5805    1.0000 </r>
       <r>  -14.0602    1.0000 </r>
       <r>  -14.0350    1.0000 </r>
       <r>  -13.9516    1.0000 </r>
       <r>  -13.5971    1.0000 </r>
       <r>  -13.5945    1.0000 </r>
       <r>  -13.1701    1.0000 </r>
       <r>  -12.9232    1.0000 </r>
       <r>  -12.5701    1.0000 </r>
       <r>  -12.5680    1.0000 </r>
       <r>  -12.5544    1.0000 </r>
       <r>  -12.5354    1.0000 </r>
       <r>  -12.5042    1.0000 </r>
       <r>  -12.2022    1.0000 </r>
       <r>  -12.2000    1.0000 </r>
       <r>  -12.0403    1.0000 </r>
       <r>  -12.0374    1.0000 </r>
       <r>  -11.6662    1.0000 </r>
       <r>  -11.6617    1.0000 </r>
       <r>  -11.4249    1.0000 </r>
       <r>  -11.2364    1.0000 </r>
       <r>  -11.2242    1.0000 </r>
       <r>  -10.9528    1.0000 </r>
       <r>  -10.8629    1.0000 </r>
       <r>  -10.8622    1.0000 </r>
       <r>  -10.6390    1.0000 </r>
       <r>  -10.5799    1.0000 </r>
       <r>  -10.5499    1.0000 </r>
       <r>  -10.5444    1.0000 </r>
       <r>  -10.5157    1.0000 </r>
       <r>  -10.4856    1.0000 </r>
       <r>  -10.4028    1.0000 </r>
       <r>  -10.2915    1.0000 </r>
       <r>  -10.2278    1.0000 </r>
       <r>  -10.2272    1.0000 </r>
       <r>  -10.2004    1.0000 </r>
       <r>  -10.1989    1.0000 </r>
       <r>   -9.9213    1.0000 </r>
       <r>   -9.9019    1.0000 </r>
       <r>   -9.8616    1.0000 </r>
       <r>   -9.2827    1.0000 </r>
       <r>   -9.2756    1.0000 </r>
       <r>   -8.8169    1.0000 </r>
       <r>   -8.8028    1.0000 </r>
       <r>   -8.6814    1.0000 </r>
       <r>   -8.4621    1.0000 </r>
       <r>   -8.4611    1.0000 </r>
       <r>   -8.1207    1.0000 </r>
       <r>   -8.1181    1.0000 </r>
       <r>   -8.0744    1.0000 </r>
       <r>   -7.9754    1.0000 </r>
       <r>   -7.9679    1.0000 </r>
       <r>   -7.9660    1.0000 </r>
       <r>   -7.3644    1.0000 </r>
       <r>   -7.3597    1.0000 </r>
       <r>   -7.3202    1.0000 </r>
       <r>   -7.2988    1.0000 </r>
       <r>   -7.2968    1.0000 </r>
       <r>   -7.2848    1.0000 </r>
       <r>   -7.2821    1.0000 </r>
       <r>   -6.5988    1.0000 </r>
       <r>   -6.4641    1.0000 </r>
       <r>   -6.3033    1.0000 </r>
       <r>   -6.3026    1.0000 </r>
       <r>   -6.2234    1.0000 </r>
       <r>   -6.2218    1.0000 </r>
       <r>   -5.8842    1.0000 </r>
       <r>   -5.8837    1.0000 </r>
       <r>   -5.8614    1.0000 </r>
       <r>   -5.2760    1.0000 </r>
       <r>   -5.2427    1.0000 </r>
       <r>   -5.2417    1.0000 </r>
       <r>   -3.9494    0.0000 </r>
       <r>   -3.9464    0.0000 </r>
       <r>   -3.7240    0.0000 </r>
       <r>   -3.7193    0.0000 </r>
       <r>   -2.5547    0.0000 </r>
       <r>   -2.5471    0.0000 </r>
       <r>   -2.5195    0.0000 </r>
       <r>   -2.5106    0.0000 </r>
       <r>   -1.7836    0.0000 </r>
       <r>   -1.5841    0.0000 </r>
       <r>   -1.5416    0.0000 </r>
       <r>   -0.7187    0.0000 </r>
       <r>   -0.5823    0.0000 </r>
       <r>   -0.3981    0.0000 </r>
       <r>   -0.1544    0.0000 </r>
       <r>   -0.1493    0.0000 </r>
       <r>    0.0520    0.0000 </r>
       <r>    0.0621    0.0000 </r>
       <r>    0.2481    0.0000 </r>
       <r>    0.2971    0.0000 </r>
       <r>    0.3017    0.0000 </r>
       <r>    0.3170    0.0000 </r>
       <r>    0.4514    0.0000 </r>
       <r>    0.4754    0.0000 </r>
       <r>    0.4987    0.0000 </r>
       <r>    0.5846    0.0000 </r>
       <r>    0.7068    0.0000 </r>
       <r>    0.7120    0.0000 </r>
       <r>    0.7694    0.0000 </r>
       <r>    0.7706    0.0000 </r>
       <r>    0.8584    0.0000 </r>
       <r>    0.9117    0.0000 </r>
       <r>    0.9626    0.0000 </r>
       <r>    0.9849    0.0000 </r>
       <r>    0.9987    0.0000 </r>
       <r>    1.0165    0.0000 </r>
       <r>    1.0321    0.0000 </r>
       <r>    1.0679    0.0000 </r>
       <r>    1.0911    0.0000 </r>
       <r>    1.1049    0.0000 </r>
       <r>    1.1178    0.0000 </r>
       <r>    1.1530    0.0000 </r>
       <r>    1.1680    0.0000 </r>
      </set>
      <set comment="kpoint 5">
       <r>  -26.9942    1.0000 </r>
       <r>  -26.9542    1.0000 </r>
       <r>  -26.6215    1.0000 </r>
       <r>  -26.6196    1.0000 </r>
       <r>  -26.4799    1.0000 </r>
       <r>  -26.4776    1.0000 </r>
       <r>  -26.2129    1.0000 </r>
       <r>  -26.1110    1.0000 </r>
       <r>  -25.8542    1.0000 </r>
       <r>  -25.8502    1.0000 </r>
       <r>  -25.8128    1.0000 </r>
       <r>  -24.3346    1.0000 </r>
       <r>  -24.3325    1.0000 </r>
       <r>  -24.2480    1.0000 </r>
       <r>  -23.9615    1.0000 </r>
       <r>  -23.9551    1.0000 </r>
       <r>  -23.7463    1.0000 </r>
       <r>  -23.3977    1.0000 </r>
       <r>  -23.3914    1.0000 </r>
       <r>  -23.2561    1.0000 </r>
       <r>  -23.2540    1.0000 </r>
       <r>  -20.6222    1.0000 </r>
       <r>  -20.6196    1.0000 </r>
       <r>  -20.6134    1.0000 </r>
       <r>  -20.4939    1.0000 </r>
       <r>  -20.4917    1.0000 </r>
       <r>  -20.4540    1.0000 </r>
       <r>  -18.7865    1.0000 </r>
       <r>  -18.7793    1.0000 </r>
       <r>  -18.3643    1.0000 </r>
       <r>  -18.3405    1.0000 </r>
       <r>  -17.9270    1.0000 </r>
       <r>  -17.2981    1.0000 </r>
       <r>  -17.0460    1.0000 </r>
       <r>  -17.0443    1.0000 </r>
       <r>  -16.7004    1.0000 </r>
       <r>  -16.6916    1.0000 </r>
       <r>  -16.1460    1.0000 </r>
       <r>  -15.5281    1.0000 </r>
       <r>  -15.3364    1.0000 </r>
       <r>  -15.3234    1.0000 </r>
       <r>  -14.8596    1.0000 </r>
       <r>  -14.7842    1.0000 </r>
       <r>  -14.6706    1.0000 </r>
       <r>  -14.6655    1.0000 </r>
       <r>  -14.5813    1.0000 </r>
       <r>  -14.0730    1.0000 </r>
       <r>  -14.0347    1.0000 </r>
       <r>  -13.9367    1.0000 </r>
       <r>  -13.5983    1.0000 </r>
       <r>  -13.5950    1.0000 </r>
       <r>  -13.1684    1.0000 </r>
       <r>  -12.9266    1.0000 </r>
       <r>  -12.5708    1.0000 </r>
       <r>  -12.5685    1.0000 </r>
       <r>  -12.5539    1.0000 </r>
       <r>  -12.5354    1.0000 </r>
       <r>  -12.5048    1.0000 </r>
       <r>  -12.2004    1.0000 </r>
       <r>  -12.1975    1.0000 </r>
       <r>  -12.0416    1.0000 </r>
       <r>  -12.0384    1.0000 </r>
       <r>  -11.6662    1.0000 </r>
       <r>  -11.6604    1.0000 </r>
       <r>  -11.4312    1.0000 </r>
       <r>  -11.2364    1.0000 </r>
       <r>  -11.2161    1.0000 </r>
       <r>  -10.9521    1.0000 </r>
       <r>  -10.8636    1.0000 </r>
       <r>  -10.8624    1.0000 </r>
       <r>  -10.6568    1.0000 </r>
       <r>  -10.5801    1.0000 </r>
       <r>  -10.5499    1.0000 </r>
       <r>  -10.5436    1.0000 </r>
       <r>  -10.5157    1.0000 </r>
       <r>  -10.4692    1.0000 </r>
       <r>  -10.4010    1.0000 </r>
       <r>  -10.2922    1.0000 </r>
       <r>  -10.2274    1.0000 </r>
       <r>  -10.2269    1.0000 </r>
       <r>  -10.2006    1.0000 </r>
       <r>  -10.1990    1.0000 </r>
       <r>   -9.9213    1.0000 </r>
       <r>   -9.9027    1.0000 </r>
       <r>   -9.8669    1.0000 </r>
       <r>   -9.2826    1.0000 </r>
       <r>   -9.2701    1.0000 </r>
       <r>   -8.8261    1.0000 </r>
       <r>   -8.8028    1.0000 </r>
       <r>   -8.6739    1.0000 </r>
       <r>   -8.4633    1.0000 </r>
       <r>   -8.4611    1.0000 </r>
       <r>   -8.1206    1.0000 </r>
       <r>   -8.1179    1.0000 </r>
       <r>   -8.0746    1.0000 </r>
       <r>   -7.9754    1.0000 </r>
       <r>   -7.9679    1.0000 </r>
       <r>   -7.9661    1.0000 </r>
       <r>   -7.3640    1.0000 </r>
       <r>   -7.3595    1.0000 </r>
       <r>   -7.3207    1.0000 </r>
       <r>   -7.2996    1.0000 </r>
       <r>   -7.2972    1.0000 </r>
       <r>   -7.2842    1.0000 </r>
       <r>   -7.2815    1.0000 </r>
       <r>   -6.5986    1.0000 </r>
       <r>   -6.4644    1.0000 </r>
       <r>   -6.3033    1.0000 </r>
       <r>   -6.3023    1.0000 </r>
       <r>   -6.2234    1.0000 </r>
       <r>   -6.2219    1.0000 </r>
       <r>   -5.8842    1.0000 </r>
       <r>   -5.8835    1.0000 </r>
       <r>   -5.8617    1.0000 </r>
       <r>   -5.2759    1.0000 </r>
       <r>   -5.2428    1.0000 </r>
       <r>   -5.2417    1.0000 </r>
       <r>   -3.9492    0.0000 </r>
       <r>   -3.9446    0.0000 </r>
       <r>   -3.7269    0.0000 </r>
       <r>   -3.7194    0.0000 </r>
       <r>   -2.5547    0.0000 </r>
       <r>   -2.5480    0.0000 </r>
       <r>   -2.5195    0.0000 </r>
       <r>   -2.5043    0.0000 </r>
       <r>   -1.8072    0.0000 </r>
       <r>   -1.5841    0.0000 </r>
       <r>   -1.5175    0.0000 </r>
       <r>   -0.7266    0.0000 </r>
       <r>   -0.5819    0.0000 </r>
       <r>   -0.4002    0.0000 </r>
       <r>   -0.1548    0.0000 </r>
       <r>   -0.1463    0.0000 </r>
       <r>    0.0520    0.0000 </r>
       <r>    0.0675    0.0000 </r>
       <r>    0.2401    0.0000 </r>
       <r>    0.2988    0.0000 </r>
       <r>    0.3041    0.0000 </r>
       <r>    0.3261    0.0000 </r>
       <r>    0.4420    0.0000 </r>
       <r>    0.4755    0.0000 </r>
       <r>    0.5041    0.0000 </r>
       <r>    0.5857    0.0000 </r>
       <r>    0.7010    0.0000 </r>
       <r>    0.7100    0.0000 </r>
       <r>    0.7669    0.0000 </r>
       <r>    0.7688    0.0000 </r>
       <r>    0.8589    0.0000 </r>
       <r>    0.9045    0.0000 </r>
       <r>    0.9530    0.0000 </r>
       <r>    0.9853    0.0000 </r>
       <r>    0.9984    0.0000 </r>
       <r>    1.0139    0.0000 </r>
       <r>    1.0356    0.0000 </r>
       <r>    1.0659    0.0000 </r>
       <r>    1.0956    0.0000 </r>
       <r>    1.1127    0.0000 </r>
       <r>    1.1255    0.0000 </r>
       <r>    1.1668    0.0000 </r>
       <r>    1.1792    0.0000 </r>
      </set>
      <set comment="kpoint 6">
       <r>  -26.9941    1.0000 </r>
       <r>  -26.9543    1.0000 </r>
       <r>  -26.6213    1.0000 </r>
       <r>  -26.6195    1.0000 </r>
       <r>  -26.4803    1.0000 </r>
       <r>  -26.4777    1.0000 </r>
       <r>  -26.2119    1.0000 </r>
       <r>  -26.1119    1.0000 </r>
       <r>  -25.8542    1.0000 </r>
       <r>  -25.8497    1.0000 </r>
       <r>  -25.8132    1.0000 </r>
       <r>  -24.3346    1.0000 </r>
       <r>  -24.3316    1.0000 </r>
       <r>  -24.2497    1.0000 </r>
       <r>  -23.9615    1.0000 </r>
       <r>  -23.9521    1.0000 </r>
       <r>  -23.7497    1.0000 </r>
       <r>  -23.3977    1.0000 </r>
       <r>  -23.3887    1.0000 </r>
       <r>  -23.2572    1.0000 </r>
       <r>  -23.2543    1.0000 </r>
       <r>  -20.6222    1.0000 </r>
       <r>  -20.6195    1.0000 </r>
       <r>  -20.6136    1.0000 </r>
       <r>  -20.4939    1.0000 </r>
       <r>  -20.4912    1.0000 </r>
       <r>  -20.4545    1.0000 </r>
       <r>  -18.7865    1.0000 </r>
       <r>  -18.7755    1.0000 </r>
       <r>  -18.3760    1.0000 </r>
       <r>  -18.3405    1.0000 </r>
       <r>  -17.9137    1.0000 </r>
       <r>  -17.3036    1.0000 </r>
       <r>  -17.0460    1.0000 </r>
       <r>  -17.0442    1.0000 </r>
       <r>  -16.7055    1.0000 </r>
       <r>  -16.6917    1.0000 </r>
       <r>  -16.1359    1.0000 </r>
       <r>  -15.5377    1.0000 </r>
       <r>  -15.3363    1.0000 </r>
       <r>  -15.3181    1.0000 </r>
       <r>  -14.8612    1.0000 </r>
       <r>  -14.7832    1.0000 </r>
       <r>  -14.6711    1.0000 </r>
       <r>  -14.6642    1.0000 </r>
       <r>  -14.5823    1.0000 </r>
       <r>  -14.0857    1.0000 </r>
       <r>  -14.0344    1.0000 </r>
       <r>  -13.9212    1.0000 </r>
       <r>  -13.6002    1.0000 </r>
       <r>  -13.5953    1.0000 </r>
       <r>  -13.1662    1.0000 </r>
       <r>  -12.9309    1.0000 </r>
       <r>  -12.5715    1.0000 </r>
       <r>  -12.5691    1.0000 </r>
       <r>  -12.5532    1.0000 </r>
       <r>  -12.5354    1.0000 </r>
       <r>  -12.5055    1.0000 </r>
       <r>  -12.1984    1.0000 </r>
       <r>  -12.1941    1.0000 </r>
       <r>  -12.0434    1.0000 </r>
       <r>  -12.0396    1.0000 </r>
       <r>  -11.6662    1.0000 </r>
       <r>  -11.6586    1.0000 </r>
       <r>  -11.4385    1.0000 </r>
       <r>  -11.2364    1.0000 </r>
       <r>  -11.2064    1.0000 </r>
       <r>  -10.9513    1.0000 </r>
       <r>  -10.8646    1.0000 </r>
       <r>  -10.8625    1.0000 </r>
       <r>  -10.6755    1.0000 </r>
       <r>  -10.5800    1.0000 </r>
       <r>  -10.5499    1.0000 </r>
       <r>  -10.5435    1.0000 </r>
       <r>  -10.5158    1.0000 </r>
       <r>  -10.4520    1.0000 </r>
       <r>  -10.3985    1.0000 </r>
       <r>  -10.2932    1.0000 </r>
       <r>  -10.2271    1.0000 </r>
       <r>  -10.2263    1.0000 </r>
       <r>  -10.2009    1.0000 </r>
       <r>  -10.1991    1.0000 </r>
       <r>   -9.9212    1.0000 </r>
       <r>   -9.9042    1.0000 </r>
       <r>   -9.8732    1.0000 </r>
       <r>   -9.2826    1.0000 </r>
       <r>   -9.2632    1.0000 </r>
       <r>   -8.8368    1.0000 </r>
       <r>   -8.8028    1.0000 </r>
       <r>   -8.6655    1.0000 </r>
       <r>   -8.4649    1.0000 </r>
       <r>   -8.4611    1.0000 </r>
       <r>   -8.1206    1.0000 </r>
       <r>   -8.1176    1.0000 </r>
       <r>   -8.0750    1.0000 </r>
       <r>   -7.9753    1.0000 </r>
       <r>   -7.9679    1.0000 </r>
       <r>   -7.9661    1.0000 </r>
       <r>   -7.3634    1.0000 </r>
       <r>   -7.3593    1.0000 </r>
       <r>   -7.3213    1.0000 </r>
       <r>   -7.3007    1.0000 </r>
       <r>   -7.2977    1.0000 </r>
       <r>   -7.2834    1.0000 </r>
       <r>   -7.2809    1.0000 </r>
       <r>   -6.5984    1.0000 </r>
       <r>   -6.4648    1.0000 </r>
       <r>   -6.3032    1.0000 </r>
       <r>   -6.3020    1.0000 </r>
       <r>   -6.2235    1.0000 </r>
       <r>   -6.2219    1.0000 </r>
       <r>   -5.8842    1.0000 </r>
       <r>   -5.8832    1.0000 </r>
       <r>   -5.8620    1.0000 </r>
       <r>   -5.2758    1.0000 </r>
       <r>   -5.2429    1.0000 </r>
       <r>   -5.2417    1.0000 </r>
       <r>   -3.9491    0.0000 </r>
       <r>   -3.9422    0.0000 </r>
       <r>   -3.7305    0.0000 </r>
       <r>   -3.7194    0.0000 </r>
       <r>   -2.5547    0.0000 </r>
       <r>   -2.5488    0.0000 </r>
       <r>   -2.5195    0.0000 </r>
[...]
       <r>    1.0207    0.0000 </r>
       <r>    1.0725    0.0000 </r>
       <r>    1.0730    0.0000 </r>
       <r>    1.1110    0.0000 </r>
       <r>    1.1132    0.0000 </r>
       <r>    1.1201    0.0000 </r>
       <r>    1.1521    0.0000 </r>
      </set>
     </set>
    </set>
   </array>
  </eigenvalues>
  <separator name="orbital magnetization" >
   <v name="MAGDIPOLOUT">      0.00000000      0.00000000      0.00000000</v>
  </separator>
  <dos>
   <i name="efermi">     -5.11848113 </i>
   <total>
    <array>
     <dimension dim="1">gridpoints</dimension>
     <dimension dim="2">spin</dimension>
     <field>energy</field>
     <field>total</field>
     <field>integrated</field>
     <set>
      <set comment="spin 1">
       <r>   -28.4106     0.0000     0.0000 </r>
       <r>   -28.3068     0.0000     0.0000 </r>
       <r>   -28.2029     0.0000     0.0000 </r>
       <r>   -28.0990     0.0000     0.0000 </r>
       <r>   -27.9952     0.0000     0.0000 </r>
       <r>   -27.8913     0.0000     0.0000 </r>
       <r>   -27.7874     0.0000     0.0000 </r>
       <r>   -27.6836     0.0000     0.0000 </r>
       <r>   -27.5797     0.0000     0.0000 </r>
       <r>   -27.4758     0.0000     0.0000 </r>
       <r>   -27.3720     0.0000     0.0000 </r>
       <r>   -27.2681     0.0000     0.0000 </r>
       <r>   -27.1642     0.0000     0.0000 </r>
       <r>   -27.0604     0.0000     0.0000 </r>
       <r>   -26.9565    27.4369     2.8498 </r>
       <r>   -26.8526     0.0000     4.0000 </r>
       <r>   -26.7488     0.0000     4.0000 </r>
       <r>   -26.6449     0.0078     4.0008 </r>
       <r>   -26.5410    34.6538     8.0000 </r>
       <r>   -26.4372    38.5108    12.0000 </r>
       <r>   -26.3333     0.0000    12.0000 </r>
       <r>   -26.2294     0.0554    12.0058 </r>
       <r>   -26.1256    21.9226    14.9104 </r>
       <r>   -26.0217     0.0000    16.0000 </r>
       <r>   -25.9178     0.0000    16.0000 </r>
       <r>   -25.8140    52.1221    21.4138 </r>
       <r>   -25.7101     0.0000    22.0000 </r>
       <r>   -25.6062     0.0000    22.0000 </r>
       <r>   -25.5024     0.0000    22.0000 </r>
       <r>   -25.3985     0.0000    22.0000 </r>
       <r>   -25.2946     0.0000    22.0000 </r>
       <r>   -25.1908     0.0000    22.0000 </r>
       <r>   -25.0869     0.0000    22.0000 </r>
       <r>   -24.9830     0.0000    22.0000 </r>
       <r>   -24.8792     0.0000    22.0000 </r>
       <r>   -24.7753     0.0000    22.0000 </r>
       <r>   -24.6714     0.0000    22.0000 </r>
       <r>   -24.5676     0.0000    22.0000 </r>
       <r>   -24.4637     0.0000    22.0000 </r>
       <r>   -24.3598     0.0036    22.0004 </r>
       <r>   -24.2560    53.0162    27.5070 </r>
       <r>   -24.1521     0.0000    28.0000 </r>
       <r>   -24.0482     0.0000    28.0000 </r>
       <r>   -23.9444    23.5196    30.4429 </r>
       <r>   -23.8405    13.7299    32.1928 </r>
       <r>   -23.7366     9.9000    33.9283 </r>
       <r>   -23.6328     0.0000    34.0000 </r>
       <r>   -23.5289     0.0000    34.0000 </r>
       <r>   -23.4250     0.0009    34.0001 </r>
       <r>   -23.3212    37.1108    37.8547 </r>
       <r>   -23.2173    34.3386    42.0000 </r>
       <r>   -23.1134     0.0000    42.0000 </r>
       <r>   -23.0096     0.0000    42.0000 </r>
       <r>   -22.9057     0.0000    42.0000 </r>
       <r>   -22.8018     0.0000    42.0000 </r>
       <r>   -22.6980     0.0000    42.0000 </r>
       <r>   -22.5941     0.0000    42.0000 </r>
       <r>   -22.4902     0.0000    42.0000 </r>
       <r>   -22.3864     0.0000    42.0000 </r>
       <r>   -22.2825     0.0000    42.0000 </r>
       <r>   -22.1786     0.0000    42.0000 </r>
       <r>   -22.0748     0.0000    42.0000 </r>
       <r>   -21.9709     0.0000    42.0000 </r>
       <r>   -21.8670     0.0000    42.0000 </r>
       <r>   -21.7632     0.0000    42.0000 </r>
       <r>   -21.6593     0.0000    42.0000 </r>
       <r>   -21.5554     0.0000    42.0000 </r>
       <r>   -21.4516     0.0000    42.0000 </r>
       <r>   -21.3477     0.0000    42.0000 </r>
       <r>   -21.2438     0.0000    42.0000 </r>
       <r>   -21.1400     0.0000    42.0000 </r>
       <r>   -21.0361     0.0000    42.0000 </r>
       <r>   -20.9322     0.0000    42.0000 </r>
       <r>   -20.8284     0.0000    42.0000 </r>
       <r>   -20.7245     0.0000    42.0000 </r>
       <r>   -20.6206    22.7768    44.3658 </r>
       <r>   -20.5168     0.0123    48.0013 </r>
       <r>   -20.4129    38.5098    54.0000 </r>
       <r>   -20.3090     0.0000    54.0000 </r>
       <r>   -20.2052     0.0000    54.0000 </r>
       <r>   -20.1013     0.0000    54.0000 </r>
       <r>   -19.9974     0.0000    54.0000 </r>
       <r>   -19.8936     0.0000    54.0000 </r>
       <r>   -19.7897     0.0000    54.0000 </r>
       <r>   -19.6858     0.0000    54.0000 </r>
       <r>   -19.5819     0.0000    54.0000 </r>
       <r>   -19.4781     0.0000    54.0000 </r>
       <r>   -19.3742     0.0000    54.0000 </r>
       <r>   -19.2703     0.0000    54.0000 </r>
       <r>   -19.1665     0.0000    54.0000 </r>
       <r>   -19.0626     0.0000    54.0000 </r>
       <r>   -18.9587     0.0000    54.0000 </r>
       <r>   -18.8549     0.0000    54.0000 </r>
       <r>   -18.7510    25.1116    56.6083 </r>
       <r>   -18.6471     9.5178    57.7886 </r>
       <r>   -18.5433     9.0020    58.9350 </r>
       <r>   -18.4394     3.1116    59.3899 </r>
       <r>   -18.3355    19.0763    61.4814 </r>
       <r>   -18.2317     0.0000    62.0000 </r>
       <r>   -18.1278     0.0000    62.0000 </r>
       <r>   -18.0239     0.0000    62.0000 </r>
       <r>   -17.9201     3.0247    62.3142 </r>
       <r>   -17.8162     2.5026    62.6933 </r>
       <r>   -17.7123     4.7377    63.2588 </r>
       <r>   -17.6085     3.2092    64.0000 </r>
       <r>   -17.5046     0.0000    64.0000 </r>
       <r>   -17.4007    10.0125    65.0400 </r>
       <r>   -17.2969     5.3584    65.7566 </r>
       <r>   -17.1930     0.0000    66.0000 </r>
       <r>   -17.0891     0.0000    66.0000 </r>
       <r>   -16.9853    38.5108    70.0000 </r>
       <r>   -16.8814     0.0000    70.0000 </r>
       <r>   -16.7775     1.7121    70.1778 </r>
       <r>   -16.6737    27.4631    73.9859 </r>
       <r>   -16.5698     0.0000    74.0000 </r>
       <r>   -16.4659     0.0000    74.0000 </r>
       <r>   -16.3621     0.0000    74.0000 </r>
       <r>   -16.2582     0.0000    74.0000 </r>
       <r>   -16.1543     1.9838    74.2060 </r>
       <r>   -16.0505     3.3251    74.7120 </r>
       <r>   -15.9466     7.1775    75.5455 </r>
       <r>   -15.8427     0.0000    76.0000 </r>
       <r>   -15.7389     0.0451    76.0047 </r>
       <r>   -15.6350     8.3005    77.1955 </r>
       <r>   -15.5311     3.8576    77.7007 </r>
       <r>   -15.4273     0.0000    78.0000 </r>
       <r>   -15.3234    20.8500    80.1656 </r>
       <r>   -15.2195    13.7997    82.0000 </r>
       <r>   -15.1157     0.0000    82.0000 </r>
       <r>   -15.0118     0.0000    82.0000 </r>
       <r>   -14.9079     0.0199    82.0021 </r>
       <r>   -14.8041     9.9620    84.0014 </r>
       <r>   -14.7002    14.4747    86.0035 </r>
       <r>   -14.5963    35.0678    90.6425 </r>
       <r>   -14.4925     0.0000    92.0000 </r>
       <r>   -14.3886     0.0000    92.0000 </r>
       <r>   -14.2847     0.0000    92.0000 </r>
       <r>   -14.1809     8.4920    92.8820 </r>
       <r>   -14.0770     4.4935    93.7001 </r>
       <r>   -13.9731    22.1935    96.1052 </r>
       <r>   -13.8693     3.0624    96.5514 </r>
       <r>   -13.7654     4.2253    97.0722 </r>
       <r>   -13.6615     9.4735    98.5507 </r>
       <r>   -13.5577    27.9202   102.0000 </r>
       <r>   -13.4538     0.0000   102.0000 </r>
       <r>   -13.3499     0.0000   102.0000 </r>
       <r>   -13.2461     0.0000   102.0000 </r>
       <r>   -13.1422     7.0535   102.7326 </r>
       <r>   -13.0383    10.2841   104.1015 </r>
       <r>   -12.9345     8.2355   105.6221 </r>
       <r>   -12.8306     0.0000   106.0000 </r>
       <r>   -12.7267     0.0000   106.0000 </r>
       <r>   -12.6229     0.0000   106.0000 </r>
       <r>   -12.5190    81.5276   114.4680 </r>
       <r>   -12.4151     0.0000   116.0000 </r>
       <r>   -12.3113     0.0000   116.0000 </r>
       <r>   -12.2074     1.5590   116.1619 </r>
       <r>   -12.1035    29.5034   120.2311 </r>
       <r>   -11.9997    28.5620   124.0000 </r>
       <r>   -11.8958     0.0000   124.0000 </r>
       <r>   -11.7919     0.0000   124.0000 </r>
       <r>   -11.6881     0.0162   124.0017 </r>
       <r>   -11.5842    19.2480   127.9993 </r>
       <r>   -11.4803    13.0750   129.3581 </r>
       <r>   -11.3765     4.8137   130.0000 </r>
       <r>   -11.2726     0.0000   130.0000 </r>
       <r>   -11.1687    24.4605   132.5406 </r>
       <r>   -11.0649     3.6480   133.0122 </r>
       <r>   -10.9610     7.1509   134.1094 </r>
       <r>   -10.8571    49.8659   140.4795 </r>
       <r>   -10.7533     2.6033   141.4037 </r>
       <r>   -10.6494     2.3403   141.7431 </r>
       <r>   -10.5455    49.9874   147.0254 </r>
       <r>   -10.4417    22.9471   150.3835 </r>
       <r>   -10.3378    21.1215   152.6938 </r>
       <r>   -10.2339    18.0278   155.7725 </r>
       <r>   -10.1301    41.3867   163.9988 </r>
       <r>   -10.0262     8.9212   164.9266 </r>
       <r>    -9.9223    11.9688   166.3098 </r>
       <r>    -9.8185    19.2540   170.0000 </r>
       <r>    -9.7146     0.0000   170.0000 </r>
       <r>    -9.6107     0.0000   170.0000 </r>
       <r>    -9.5069     0.0000   170.0000 </r>
       <r>    -9.4030     0.0000   170.0000 </r>
       <r>    -9.2991     0.1950   170.0203 </r>
       <r>    -9.1953     4.9292   172.7453 </r>
       <r>    -9.0914     8.3644   173.7355 </r>
       <r>    -8.9875     7.8668   174.8171 </r>
       <r>    -8.8837     3.7507   175.4229 </r>
       <r>    -8.7798    23.4162   177.9988 </r>
       <r>    -8.6759     2.5189   178.2616 </r>
       <r>    -8.5721     6.9360   179.1538 </r>
       <r>    -8.4682    19.8559   181.8957 </r>
       <r>    -8.3643     0.0000   184.0000 </r>
       <r>    -8.2605     0.0000   184.0000 </r>
       <r>    -8.1566     0.0000   184.0000 </r>
       <r>    -8.0527    57.7604   189.9994 </r>
       <r>    -7.9489    57.5765   195.9803 </r>
       <r>    -7.8450     0.0000   196.0000 </r>
       <r>    -7.7411     0.0000   196.0000 </r>
       <r>    -7.6373     0.0000   196.0000 </r>
       <r>    -7.5334     0.0000   196.0000 </r>
       <r>    -7.4295     0.0000   196.0000 </r>
       <r>    -7.3257    52.6700   201.4707 </r>
       <r>    -7.2218    61.9361   210.0000 </r>
       <r>    -7.1179     0.0000   210.0000 </r>
       <r>    -7.0141     0.0000   210.0000 </r>
       <r>    -6.9102     0.0000   210.0000 </r>
       <r>    -6.8063     0.0000   210.0000 </r>
       <r>    -6.7025     0.0000   210.0000 </r>
       <r>    -6.5986     6.8852   210.7151 </r>
       <r>    -6.4947     0.0046   212.0005 </r>
       <r>    -6.3909    13.1561   214.0000 </r>
       <r>    -6.2870    37.1707   217.8608 </r>
       <r>    -6.1831    38.5108   222.0000 </r>
       <r>    -6.0793     0.0000   222.0000 </r>
       <r>    -5.9754     0.0000   222.0000 </r>
       <r>    -5.8715    39.6706   226.1205 </r>
       <r>    -5.7676     0.0000   228.0000 </r>
       <r>    -5.6638     0.0000   228.0000 </r>
       <r>    -5.5599     0.0000   228.0000 </r>
       <r>    -5.4560     0.0000   228.0000 </r>
       <r>    -5.3522     0.0000   228.0000 </r>
       <r>    -5.2483    27.9286   230.9009 </r>
       <r>    -5.1444     0.0000   234.0000 </r>
       <r>    -5.0406     0.0000   234.0000 </r>
       <r>    -4.9367     0.0000   234.0000 </r>
       <r>    -4.8328     0.0000   234.0000 </r>
       <r>    -4.7290     0.0000   234.0000 </r>
       <r>    -4.6251     0.0000   234.0000 </r>
       <r>    -4.5212     0.0000   234.0000 </r>
       <r>    -4.4174     0.0000   234.0000 </r>
       <r>    -4.3135     0.0000   234.0000 </r>
       <r>    -4.2096     0.0000   234.0000 </r>
       <r>    -4.1058     0.0000   234.0000 </r>
       <r>    -4.0019     0.0000   234.0000 </r>
       <r>    -3.8980    28.4125   236.9511 </r>
       <r>    -3.7942    13.6305   238.9825 </r>
       <r>    -3.6903    26.6362   242.0000 </r>
       <r>    -3.5864     0.0000   242.0000 </r>
       <r>    -3.4826     0.0000   242.0000 </r>
       <r>    -3.3787     0.0000   242.0000 </r>
       <r>    -3.2748     0.0000   242.0000 </r>
       <r>    -3.1710     0.0000   242.0000 </r>
       <r>    -3.0671     0.0000   242.0000 </r>
       <r>    -2.9632     0.0000   242.0000 </r>
       <r>    -2.8594     0.0000   242.0000 </r>
       <r>    -2.7555     0.0000   242.0000 </r>
       <r>    -2.6516     0.0000   242.0000 </r>
       <r>    -2.5478    29.0794   245.0204 </r>
       <r>    -2.4439    25.4126   248.6396 </r>
       <r>    -2.3400     4.2853   249.1784 </r>
       <r>    -2.2362     4.4929   250.0000 </r>
       <r>    -2.1323     6.0802   250.6315 </r>
       <r>    -2.0284     2.1514   251.1901 </r>
       <r>    -1.9246     1.6290   251.4359 </r>
       <r>    -1.8207     1.7969   251.6866 </r>
       <r>    -1.7168     2.5673   252.0000 </r>
       <r>    -1.6130     0.0004   252.0000 </r>
       <r>    -1.5091    22.1573   254.3014 </r>
       <r>    -1.4052     1.7059   254.5439 </r>
       <r>    -1.3014     1.7280   254.7795 </r>
       <r>    -1.1975     2.1420   255.0558 </r>
       <r>    -1.0936     4.9696   255.8495 </r>
       <r>    -0.9898     3.3716   256.3502 </r>
       <r>    -0.8859     5.7787   257.1002 </r>
       <r>    -0.7820     2.3970   257.4490 </r>
       <r>    -0.6782     4.1720   258.0000 </r>
       <r>    -0.5743     9.6195   258.9992 </r>
       <r>    -0.4704     0.0001   260.0000 </r>
       <r>    -0.3666    19.2553   262.0000 </r>
       <r>    -0.2627     0.0000   262.0000 </r>
       <r>    -0.1588    11.9833   263.2447 </r>
       <r>    -0.0550    15.0586   265.9974 </r>
       <r>     0.0489     7.1369   266.7413 </r>
       <r>     0.1528     9.9202   269.3637 </r>
       <r>     0.2566    16.9658   271.8622 </r>
       <r>     0.3605    41.9785   276.3602 </r>
       <r>     0.4644    30.1296   280.6962 </r>
       <r>     0.5682    10.9486   284.3372 </r>
       <r>     0.6721    18.6652   287.5387 </r>
       <r>     0.7760    52.7413   293.8115 </r>
       <r>     0.8798    28.0816   298.0168 </r>
       <r>     0.9837    41.0252   302.9945 </r>
       <r>     1.0876    29.9512   307.5110 </r>
       <r>     1.1914    47.6732   314.3851 </r>
       <r>     1.2953    30.5578   318.7740 </r>
       <r>     1.3992     3.8508   320.0000 </r>
       <r>     1.5030     0.0000   320.0000 </r>
       <r>     1.6069     0.0000   320.0000 </r>
       <r>     1.7108     0.0000   320.0000 </r>
       <r>     1.8146     0.0000   320.0000 </r>
       <r>     1.9185     0.0000   320.0000 </r>
       <r>     2.0224     0.0000   320.0000 </r>
       <r>     2.1262     0.0000   320.0000 </r>
       <r>     2.2301     0.0000   320.0000 </r>
       <r>     2.3340     0.0000   320.0000 </r>
       <r>     2.4378     0.0000   320.0000 </r>
       <r>     2.5417     0.0000   320.0000 </r>
       <r>     2.6456     0.0000   320.0000 </r>
       <r>     2.7494     0.0000   320.0000 </r>
      </set>
     </set>
    </array>
   </total>
  </dos>
 </calculation>
 <structure name="finalpos" >
  <crystal>
   <varray name="basis" >
    <v>      21.50596724      -0.01567846       0.00000000 </v>
    <v>     -10.76661723      18.65515962       0.00000000 </v>
    <v>       0.00000000       0.00000000      20.00000000 </v>
   </varray>
   <i name="volume">   8020.56895319 </i>
   <varray name="rec_basis" >
    <v>       0.04651829       0.02684751       0.00000000 </v>
    <v>       0.00003910       0.05362704       0.00000000 </v>
    <v>       0.00000000       0.00000000       0.05000000 </v>
   </varray>
  </crystal>
  <varray name="positions" >
   <v>       0.31868831       0.59700613       0.47115408 </v>
   <v>       0.39532841       0.72359348       0.47187799 </v>
   <v>       0.26856260       0.67344445       0.47248849 </v>
   <v>       0.67644422       0.40142747       0.54696246 </v>
   <v>       0.59024676       0.27710657       0.54550619 </v>
   <v>       0.71468439       0.31536703       0.54656629 </v>
   <v>       0.55537698       0.14176369       0.53305776 </v>
   <v>       0.57594108       0.43631077       0.53408325 </v>
   <v>       0.85037548       0.41592612       0.53597603 </v>
   <v>       0.55255065       0.03263576       0.51377127 </v>
   <v>       0.51633504       0.96302454       0.50123144 </v>
   <v>       0.41567099       0.85535078       0.48310213 </v>
   <v>       0.46978903       0.43965285       0.51440570 </v>
   <v>       0.43660117       0.47599338       0.50131455 </v>
   <v>       0.43004172       0.57665340       0.48230011 </v>
   <v>       0.95950225       0.52194929       0.51498501 </v>
   <v>       0.02901929       0.55516501       0.50140996 </v>
   <v>       0.13657146       0.56205515       0.48246901 </v>
   <v>       0.38364745       0.65652785       0.47159212 </v>
   <v>       0.33574553       0.72891225       0.47241417 </v>
   <v>       0.44932405       0.64729539       0.47537940 </v>
   <v>       0.34494959       0.80370706       0.47630331 </v>
   <v>       0.18821894       0.54299497       0.47592193 </v>
   <v>       0.60866820       0.34628601       0.54595719 </v>
   <v>       0.64540531       0.26454042       0.54577721 </v>
   <v>       0.54775461       0.36338833       0.54223409 </v>
   <v>       0.62827074       0.18660321       0.54220905 </v>
   <v>       0.80539504       0.44391381       0.54390116 </v>
   <v>       0.40351499       0.96282376       0.49968084 </v>
   <v>       0.44130710       0.03524855       0.51328713 </v>
   <v>       0.51651074       0.06837803       0.52023851 </v>
   <v>       0.54952670       0.58844373       0.50046689 </v>
   <v>       0.58392892       0.55050708       0.51454623 </v>
   <v>       0.54161629       0.47538752       0.52118733 </v>
   <v>       0.02916275       0.44268980       0.50154448 </v>
   <v>       0.95684273       0.40825385       0.51612245 </v>
   <v>       0.92376347       0.45032691       0.52258496 </v>
   <v>       0.26317435       0.60861512       0.47196409 </v>
   <v>       0.72729270       0.38303907       0.54687489 </v>
   <v>       0.44437477       0.92837140       0.49456413 </v>
   <v>       0.47416999       0.54782187       0.49454831 </v>
   <v>       0.06360089       0.51784883       0.49499398 </v>
   <v>       0.41389179       0.06610345       0.51832540 </v>
   <v>       0.34551740       0.93298892       0.49328696 </v>
   <v>       0.52731473       0.16863268       0.53398043 </v>
   <v>       0.64221080       0.57775302       0.52016766 </v>
   <v>       0.57787269       0.64637978       0.49424598 </v>
   <v>       0.63093106       0.46427982       0.53569088 </v>
   <v>       0.92601932       0.35010126       0.52221913 </v>
   <v>       0.05893672       0.41449706       0.49545604 </v>
   <v>       0.82335708       0.36100482       0.53707394 </v>
   <v>       0.45229129       0.83811024       0.48236108 </v>
   <v>       0.37608855       0.54020857       0.48144771 </v>
   <v>       0.15393692       0.61589667       0.48156161 </v>
   <v>       0.29324354       0.81334723       0.47494550 </v>
   <v>       0.17844348       0.48167265       0.47496771 </v>
   <v>       0.51080612       0.69881909       0.47405839 </v>
   <v>       0.67539749       0.17090518       0.54620429 </v>
   <v>       0.82103741       0.50669818       0.54711615 </v>
   <v>       0.48483192       0.31621566       0.54520526 </v>
  </varray>
 </structure>
</modeling>
