<?xml version="1.0" encoding="ISO-8859-1"?>
<modeling>
 <generator>
  <i name="program" type="string">vasp </i>
  <i name="version" type="string">5.4.4.18Apr17-6-g9f103f2a35  </i>
  <i name="subversion" type="string">(build Jun 07 2020 16:50:00) complex            parallel </i>
  <i name="platform" type="string">LinuxIFC </i>
  <i name="date" type="string">2023 02 14 </i>
  <i name="time" type="string">22:49:57 </i>
 </generator>
 <incar>
  <i type="string" name="SYSTEM">Simulation for cell shape cell volume r</i>
  <i type="int" name="ISTART">     1</i>
  <i type="string" name="PREC">high</i>
  <i type="string" name="ALGO">48</i>
  <i type="int" name="ICHARG">    11</i>
  <i type="int" name="NELM">   200</i>
  <i type="int" name="IBRION">    -1</i>
  <i name="EDIFF">      0.00001000</i>
  <i name="EDIFFG">     -0.01000000</i>
  <i type="int" name="NSW">     0</i>
  <i type="int" name="ISIF">     2</i>
  <i name="ENCUT">    500.00000000</i>
  <i name="POTIM">      0.30000000</i>
  <i type="string" name="LREAL">A</i>
  <i type="int" name="ISMEAR">     0</i>
  <i name="SIGMA">      0.01000000</i>
  <i type="int" name="NWRITE">     0</i>
  <i type="logical" name="LWAVE"> F  </i>
  <i type="logical" name="LCHARG"> F  </i>
  <v type="int" name="KPOINT_BSE">    -1     0     0     0</v>
  <i type="int" name="NELM">   200</i>
  <i type="string" name="GGA">PE</i>
 </incar>
 <structure name="primitive_cell" >
  <crystal>
   <varray name="basis" >
    <v>      14.43883845       0.17160370       0.00000000 </v>
    <v>      -7.05191835      12.14376442       0.00000000 </v>
    <v>       0.00000000       0.00000000      20.00000000 </v>
   </varray>
   <i name="volume">   3531.03975940 </i>
   <varray name="rec_basis" >
    <v>       0.06878294       0.03994245       0.00000000 </v>
    <v>      -0.00097197       0.08178236       0.00000000 </v>
    <v>       0.00000000       0.00000000       0.05000000 </v>
   </varray>
  </crystal>
  <varray name="positions" >
   <v>       0.47977324       0.07219467      -0.43279026 </v>
   <v>      -0.43966371       0.11788201      -0.47618492 </v>
   <v>       0.42117181      -0.03697188      -0.42874635 </v>
   <v>       0.37838611       0.07166665      -0.36767738 </v>
   <v>      -0.41672713       0.05040289       0.48240765 </v>
   <v>       0.44312890      -0.10381897      -0.47079633 </v>
   <v>       0.33729865      -0.07772984      -0.37416560 </v>
   <v>      -0.37875337       0.23977351      -0.47857097 </v>
   <v>       0.32530949       0.00238554      -0.34619344 </v>
   <v>      -0.47484073      -0.05809009       0.48665881 </v>
   <v>      -0.43553942       0.29119933      -0.48279375 </v>
   <v>      -0.27266367       0.28817937      -0.47740045 </v>
   <v>       0.28710387      -0.17294022      -0.35645324 </v>
   <v>       0.38174042      -0.22551179      -0.47587328 </v>
   <v>      -0.33339639       0.09143823       0.42748909 </v>
   <v>      -0.37647308       0.39873595      -0.49640990 </v>
   <v>      -0.29830887       0.18170133       0.40211227 </v>
   <v>       0.27599356      -0.27586549      -0.47924928 </v>
   <v>       0.44953064       0.26468674       0.39781809 </v>
   <v>      -0.22206334       0.39696567      -0.48588797 </v>
   <v>      -0.33958480      -0.04880129       0.43337779 </v>
   <v>       0.43988864      -0.27525344      -0.48207054 </v>
   <v>       0.11515145      -0.19454779      -0.45556740 </v>
   <v>      -0.30351219       0.01979894       0.40725409 </v>
   <v>       0.40202979       0.30254097       0.42802776 </v>
   <v>       0.10780143      -0.23065423      -0.41246241 </v>
   <v>      -0.27029047       0.45566902      -0.49919216 </v>
   <v>      -0.43545781       0.45874801       0.49075306 </v>
   <v>       0.45771237       0.40786481       0.46775568 </v>
   <v>      -0.10205730       0.24857133      -0.40212966 </v>
   <v>       0.29549871       0.25869117       0.42600151 </v>
   <v>       0.10227094      -0.26228602       0.49302498 </v>
   <v>      -0.09372082       0.27632600      -0.46023889 </v>
   <v>      -0.11496639       0.20468059       0.48919284 </v>
   <v>       0.12067977      -0.23013891       0.43564669 </v>
   <v>      -0.11402940       0.23753148       0.44581595 </v>
   <v>       0.22801915      -0.38457883      -0.48884652 </v>
   <v>      -0.33291128      -0.21187220      -0.43718538 </v>
   <v>      -0.10404000       0.45393478      -0.48390530 </v>
   <v>       0.27742249       0.30959408       0.44909692 </v>
   <v>      -0.34403650      -0.19710105       0.45144072 </v>
   <v>       0.38424535      -0.38309774      -0.49404351 </v>
   <v>      -0.36915345      -0.25573161      -0.49004486 </v>
   <v>      -0.04671467       0.39647720      -0.47783883 </v>
   <v>      -0.38474756      -0.43415916      -0.49595701 </v>
   <v>       0.40186479       0.45940564       0.47556207 </v>
   <v>       0.05309911      -0.38372211      -0.49219869 </v>
   <v>       0.27810438      -0.44274365      -0.49785703 </v>
   <v>      -0.37450908      -0.24579363       0.41301794 </v>
   <v>       0.11017255      -0.44170425      -0.48830219 </v>
   <v>      -0.05293654      -0.43696161      -0.49012451 </v>
   <v>       0.44988557      -0.43602134       0.49476681 </v>
   <v>      -0.43763058      -0.37877094      -0.49814773 </v>
   <v>       0.05946786       0.44960966      -0.48111024 </v>
  </varray>
 </structure>
 <varray name="primitive_index" >
  <v type="int" >        1 </v>
  <v type="int" >       21 </v>
  <v type="int" >       34 </v>
  <v type="int" >       16 </v>
  <v type="int" >       19 </v>
  <v type="int" >       35 </v>
  <v type="int" >       36 </v>
  <v type="int" >       23 </v>
  <v type="int" >       50 </v>
  <v type="int" >       12 </v>
  <v type="int" >        2 </v>
  <v type="int" >        3 </v>
  <v type="int" >       49 </v>
  <v type="int" >       26 </v>
  <v type="int" >       20 </v>
  <v type="int" >       22 </v>
  <v type="int" >       43 </v>
  <v type="int" >        6 </v>
  <v type="int" >       53 </v>
  <v type="int" >       24 </v>
  <v type="int" >       13 </v>
  <v type="int" >        5 </v>
  <v type="int" >       46 </v>
  <v type="int" >       44 </v>
  <v type="int" >       42 </v>
  <v type="int" >       14 </v>
  <v type="int" >        4 </v>
  <v type="int" >       40 </v>
  <v type="int" >       41 </v>
  <v type="int" >       51 </v>
  <v type="int" >       54 </v>
  <v type="int" >       30 </v>
  <v type="int" >       39 </v>
  <v type="int" >       52 </v>
  <v type="int" >       45 </v>
  <v type="int" >       17 </v>
  <v type="int" >       27 </v>
  <v type="int" >       47 </v>
  <v type="int" >       37 </v>
  <v type="int" >       18 </v>
  <v type="int" >       48 </v>
  <v type="int" >       25 </v>
  <v type="int" >       33 </v>
  <v type="int" >       38 </v>
  <v type="int" >        9 </v>
  <v type="int" >       11 </v>
  <v type="int" >       28 </v>
  <v type="int" >        7 </v>
  <v type="int" >       15 </v>
  <v type="int" >       29 </v>
  <v type="int" >        8 </v>
  <v type="int" >       32 </v>
  <v type="int" >       31 </v>
  <v type="int" >       10 </v>
 </varray>
 <kpoints>
  <generation param="listgenerated">
   <i name="divisions" type="int">      20 </i>
   <v>       0.00000000       0.00000000       0.00000000 </v>
   <v>       0.50000000      -0.50000000       0.00000000 </v>
   <v>       0.67402050      -0.34407228       0.00000000 </v>
   <v>       0.50000000       0.00000000       0.00000000 </v>
   <v>       0.32597950       0.34407228       0.00000000 </v>
   <v>       0.00000000       0.50000000       0.00000000 </v>
   <v>       0.00000000       0.00000000       0.00000000 </v>
  </generation>
  <varray name="kpointlist" >
   <v>       0.00000000       0.00000000       0.00000000 </v>
   <v>       0.02631579      -0.02631579       0.00000000 </v>
   <v>       0.05263158      -0.05263158       0.00000000 </v>
   <v>       0.07894737      -0.07894737       0.00000000 </v>
   <v>       0.10526316      -0.10526316       0.00000000 </v>
   <v>       0.13157895      -0.13157895       0.00000000 </v>
   <v>       0.15789474      -0.15789474       0.00000000 </v>
   <v>       0.18421053      -0.18421053       0.00000000 </v>
   <v>       0.21052632      -0.21052632       0.00000000 </v>
   <v>       0.23684211      -0.23684211       0.00000000 </v>
   <v>       0.26315789      -0.26315789       0.00000000 </v>
   <v>       0.28947368      -0.28947368       0.00000000 </v>
   <v>       0.31578947      -0.31578947       0.00000000 </v>
   <v>       0.34210526      -0.34210526       0.00000000 </v>
   <v>       0.36842105      -0.36842105       0.00000000 </v>
   <v>       0.39473684      -0.39473684       0.00000000 </v>
   <v>       0.42105263      -0.42105263       0.00000000 </v>
   <v>       0.44736842      -0.44736842       0.00000000 </v>
   <v>       0.47368421      -0.47368421       0.00000000 </v>
   <v>       0.50000000      -0.50000000       0.00000000 </v>
   <v>       0.50000000      -0.50000000       0.00000000 </v>
   <v>       0.50915897      -0.49179328       0.00000000 </v>
   <v>       0.51831795      -0.48358656       0.00000000 </v>
   <v>       0.52747692      -0.47537983       0.00000000 </v>
   <v>       0.53663590      -0.46717311       0.00000000 </v>
   <v>       0.54579487      -0.45896639       0.00000000 </v>
   <v>       0.55495384      -0.45075967       0.00000000 </v>
   <v>       0.56411282      -0.44255295       0.00000000 </v>
   <v>       0.57327179      -0.43434622       0.00000000 </v>
   <v>       0.58243076      -0.42613950       0.00000000 </v>
   <v>       0.59158974      -0.41793278       0.00000000 </v>
   <v>       0.60074871      -0.40972606       0.00000000 </v>
   <v>       0.60990769      -0.40151934       0.00000000 </v>
   <v>       0.61906666      -0.39331261       0.00000000 </v>
   <v>       0.62822563      -0.38510589       0.00000000 </v>
   <v>       0.63738461      -0.37689917       0.00000000 </v>
   <v>       0.64654358      -0.36869245       0.00000000 </v>
   <v>       0.65570256      -0.36048573       0.00000000 </v>
   <v>       0.66486153      -0.35227900       0.00000000 </v>
   <v>       0.67402050      -0.34407228       0.00000000 </v>
   <v>       0.67402050      -0.34407228       0.00000000 </v>
   <v>       0.66486153      -0.32596322       0.00000000 </v>
   <v>       0.65570256      -0.30785415       0.00000000 </v>
   <v>       0.64654358      -0.28974508       0.00000000 </v>
   <v>       0.63738461      -0.27163601       0.00000000 </v>
   <v>       0.62822563      -0.25352695       0.00000000 </v>
   <v>       0.61906666      -0.23541788       0.00000000 </v>
   <v>       0.60990769      -0.21730881       0.00000000 </v>
   <v>       0.60074871      -0.19919974       0.00000000 </v>
   <v>       0.59158974      -0.18109068       0.00000000 </v>
   <v>       0.58243076      -0.16298161       0.00000000 </v>
   <v>       0.57327179      -0.14487254       0.00000000 </v>
   <v>       0.56411282      -0.12676347       0.00000000 </v>
   <v>       0.55495384      -0.10865441       0.00000000 </v>
   <v>       0.54579487      -0.09054534       0.00000000 </v>
   <v>       0.53663590      -0.07243627       0.00000000 </v>
   <v>       0.52747692      -0.05432720       0.00000000 </v>
   <v>       0.51831795      -0.03621814       0.00000000 </v>
   <v>       0.50915897      -0.01810907       0.00000000 </v>
   <v>       0.50000000       0.00000000       0.00000000 </v>
   <v>       0.50000000       0.00000000       0.00000000 </v>
   <v>       0.49084103       0.01810907       0.00000000 </v>
   <v>       0.48168205       0.03621814       0.00000000 </v>
   <v>       0.47252308       0.05432720       0.00000000 </v>
   <v>       0.46336410       0.07243627       0.00000000 </v>
   <v>       0.45420513       0.09054534       0.00000000 </v>
   <v>       0.44504616       0.10865441       0.00000000 </v>
   <v>       0.43588718       0.12676347       0.00000000 </v>
   <v>       0.42672821       0.14487254       0.00000000 </v>
   <v>       0.41756924       0.16298161       0.00000000 </v>
   <v>       0.40841026       0.18109068       0.00000000 </v>
   <v>       0.39925129       0.19919974       0.00000000 </v>
   <v>       0.39009231       0.21730881       0.00000000 </v>
   <v>       0.38093334       0.23541788       0.00000000 </v>
   <v>       0.37177437       0.25352695       0.00000000 </v>
   <v>       0.36261539       0.27163601       0.00000000 </v>
   <v>       0.35345642       0.28974508       0.00000000 </v>
   <v>       0.34429744       0.30785415       0.00000000 </v>
   <v>       0.33513847       0.32596322       0.00000000 </v>
   <v>       0.32597950       0.34407228       0.00000000 </v>
   <v>       0.32597950       0.34407228       0.00000000 </v>
   <v>       0.30882268       0.35227900       0.00000000 </v>
   <v>       0.29166587       0.36048573       0.00000000 </v>
   <v>       0.27450905       0.36869245       0.00000000 </v>
   <v>       0.25735223       0.37689917       0.00000000 </v>
   <v>       0.24019542       0.38510589       0.00000000 </v>
   <v>       0.22303860       0.39331261       0.00000000 </v>
   <v>       0.20588179       0.40151934       0.00000000 </v>
   <v>       0.18872497       0.40972606       0.00000000 </v>
   <v>       0.17156816       0.41793278       0.00000000 </v>
   <v>       0.15441134       0.42613950       0.00000000 </v>
   <v>       0.13725452       0.43434622       0.00000000 </v>
   <v>       0.12009771       0.44255295       0.00000000 </v>
   <v>       0.10294089       0.45075967       0.00000000 </v>
   <v>       0.08578408       0.45896639       0.00000000 </v>
   <v>       0.06862726       0.46717311       0.00000000 </v>
   <v>       0.05147045       0.47537983       0.00000000 </v>
   <v>       0.03431363       0.48358656       0.00000000 </v>
   <v>       0.01715682       0.49179328       0.00000000 </v>
   <v>       0.00000000       0.50000000       0.00000000 </v>
   <v>       0.00000000       0.50000000       0.00000000 </v>
   <v>       0.00000000       0.47368421       0.00000000 </v>
   <v>       0.00000000       0.44736842       0.00000000 </v>
   <v>       0.00000000       0.42105263       0.00000000 </v>
   <v>       0.00000000       0.39473684       0.00000000 </v>
   <v>       0.00000000       0.36842105       0.00000000 </v>
   <v>       0.00000000       0.34210526       0.00000000 </v>
   <v>       0.00000000       0.31578947       0.00000000 </v>
   <v>       0.00000000       0.28947368       0.00000000 </v>
   <v>       0.00000000       0.26315789       0.00000000 </v>
   <v>       0.00000000       0.23684211       0.00000000 </v>
   <v>       0.00000000       0.21052632       0.00000000 </v>
   <v>       0.00000000       0.18421053       0.00000000 </v>
   <v>       0.00000000       0.15789474       0.00000000 </v>
   <v>       0.00000000       0.13157895       0.00000000 </v>
   <v>       0.00000000       0.10526316       0.00000000 </v>
   <v>       0.00000000       0.07894737       0.00000000 </v>
   <v>       0.00000000       0.05263158       0.00000000 </v>
   <v>       0.00000000       0.02631579       0.00000000 </v>
   <v>       0.00000000       0.00000000       0.00000000 </v>
  </varray>
  <varray name="weights" >
   <v>       0.00833333 </v>
   <v>       0.00833333 </v>
   <v>       0.00833333 </v>
   <v>       0.00833333 </v>
   <v>       0.00833333 </v>
   <v>       0.00833333 </v>
   <v>       0.00833333 </v>
   <v>       0.00833333 </v>
   <v>       0.00833333 </v>
   <v>       0.00833333 </v>
   <v>       0.00833333 </v>
   <v>       0.00833333 </v>
   <v>       0.00833333 </v>
   <v>       0.00833333 </v>
   <v>       0.00833333 </v>
   <v>       0.00833333 </v>
   <v>       0.00833333 </v>
   <v>       0.00833333 </v>
   <v>       0.00833333 </v>
   <v>       0.00833333 </v>
   <v>       0.00833333 </v>
   <v>       0.00833333 </v>
   <v>       0.00833333 </v>
   <v>       0.00833333 </v>
   <v>       0.00833333 </v>
   <v>       0.00833333 </v>
   <v>       0.00833333 </v>
   <v>       0.00833333 </v>
   <v>       0.00833333 </v>
   <v>       0.00833333 </v>
   <v>       0.00833333 </v>
   <v>       0.00833333 </v>
   <v>       0.00833333 </v>
   <v>       0.00833333 </v>
   <v>       0.00833333 </v>
   <v>       0.00833333 </v>
   <v>       0.00833333 </v>
   <v>       0.00833333 </v>
   <v>       0.00833333 </v>
   <v>       0.00833333 </v>
   <v>       0.00833333 </v>
   <v>       0.00833333 </v>
   <v>       0.00833333 </v>
   <v>       0.00833333 </v>
   <v>       0.00833333 </v>
   <v>       0.00833333 </v>
   <v>       0.00833333 </v>
   <v>       0.00833333 </v>
   <v>       0.00833333 </v>
   <v>       0.00833333 </v>
   <v>       0.00833333 </v>
   <v>       0.00833333 </v>
   <v>       0.00833333 </v>
   <v>       0.00833333 </v>
   <v>       0.00833333 </v>
   <v>       0.00833333 </v>
   <v>       0.00833333 </v>
   <v>       0.00833333 </v>
   <v>       0.00833333 </v>
   <v>       0.00833333 </v>
   <v>       0.00833333 </v>
   <v>       0.00833333 </v>
   <v>       0.00833333 </v>
   <v>       0.00833333 </v>
   <v>       0.00833333 </v>
   <v>       0.00833333 </v>
   <v>       0.00833333 </v>
   <v>       0.00833333 </v>
   <v>       0.00833333 </v>
   <v>       0.00833333 </v>
   <v>       0.00833333 </v>
   <v>       0.00833333 </v>
   <v>       0.00833333 </v>
   <v>       0.00833333 </v>
   <v>       0.00833333 </v>
   <v>       0.00833333 </v>
   <v>       0.00833333 </v>
   <v>       0.00833333 </v>
   <v>       0.00833333 </v>
   <v>       0.00833333 </v>
   <v>       0.00833333 </v>
   <v>       0.00833333 </v>
   <v>       0.00833333 </v>
   <v>       0.00833333 </v>
   <v>       0.00833333 </v>
   <v>       0.00833333 </v>
   <v>       0.00833333 </v>
   <v>       0.00833333 </v>
   <v>       0.00833333 </v>
   <v>       0.00833333 </v>
   <v>       0.00833333 </v>
   <v>       0.00833333 </v>
   <v>       0.00833333 </v>
   <v>       0.00833333 </v>
   <v>       0.00833333 </v>
   <v>       0.00833333 </v>
   <v>       0.00833333 </v>
   <v>       0.00833333 </v>
   <v>       0.00833333 </v>
   <v>       0.00833333 </v>
   <v>       0.00833333 </v>
   <v>       0.00833333 </v>
   <v>       0.00833333 </v>
   <v>       0.00833333 </v>
   <v>       0.00833333 </v>
   <v>       0.00833333 </v>
   <v>       0.00833333 </v>
   <v>       0.00833333 </v>
   <v>       0.00833333 </v>
   <v>       0.00833333 </v>
   <v>       0.00833333 </v>
   <v>       0.00833333 </v>
   <v>       0.00833333 </v>
   <v>       0.00833333 </v>
   <v>       0.00833333 </v>
   <v>       0.00833333 </v>
   <v>       0.00833333 </v>
   <v>       0.00833333 </v>
   <v>       0.00833333 </v>
   <v>       0.00833333 </v>
  </varray>
 </kpoints>
 <parameters>
  <separator name="general" >
   <i type="string" name="SYSTEM">Simulation for cell shape cell volume r</i>
   <i type="logical" name="LCOMPAT"> F  </i>
  </separator>
  <separator name="electronic" >
   <i type="string" name="PREC">high</i>
   <i name="ENMAX">    500.00000000</i>
   <i name="ENAUG">    644.87300000</i>
   <i name="EDIFF">      0.00001000</i>
   <i type="int" name="IALGO">    38</i>
   <i type="int" name="IWAVPR">    10</i>
   <i type="int" name="NBANDS">   160</i>
   <i name="NELECT">    234.00000000</i>
   <i type="int" name="TURBO">     0</i>
   <i type="int" name="IRESTART">     0</i>
   <i type="int" name="NREBOOT">     0</i>
   <i type="int" name="NMIN">     0</i>
   <i name="EREF">      0.00000000</i>
   <separator name="electronic smearing" >
    <i type="int" name="ISMEAR">     0</i>
    <i name="SIGMA">      0.01000000</i>
    <i name="KSPACING">      0.50000000</i>
    <i type="logical" name="KGAMMA"> T  </i>
   </separator>
   <separator name="electronic projectors" >
    <i type="logical" name="LREAL"> T  </i>
    <v name="ROPT">     -0.00040000     -0.00040000     -0.00040000     -0.00040000</v>
    <i type="int" name="LMAXPAW">  -100</i>
    <i type="int" name="LMAXMIX">     2</i>
    <i type="logical" name="NLSPLINE"> F  </i>
   </separator>
   <separator name="electronic startup" >
    <i type="int" name="ISTART">     1</i>
    <i type="int" name="ICHARG">    11</i>
    <i type="int" name="INIWAV">     1</i>
   </separator>
   <separator name="electronic spin" >
    <i type="int" name="ISPIN">     1</i>
    <i type="logical" name="LNONCOLLINEAR"> F  </i>
    <v name="MAGMOM">      1.00000000      1.00000000      1.00000000      1.00000000      1.00000000      1.00000000      1.00000000      1.00000000      1.00000000      1.00000000      1.00000000      1.00000000      1.00000000      1.00000000      1.00000000      1.00000000      1.00000000      1.00000000      1.00000000      1.00000000
      1.00000000      1.00000000      1.00000000      1.00000000      1.00000000      1.00000000      1.00000000      1.00000000      1.00000000      1.00000000      1.00000000      1.00000000      1.00000000      1.00000000      1.00000000      1.00000000      1.00000000      1.00000000      1.00000000      1.00000000
      1.00000000      1.00000000      1.00000000      1.00000000      1.00000000      1.00000000      1.00000000      1.00000000      1.00000000      1.00000000      1.00000000      1.00000000      1.00000000      1.00000000</v>
    <i name="NUPDOWN">     -1.00000000</i>
    <i type="logical" name="LSORBIT"> F  </i>
    <v name="SAXIS">      0.00000000      0.00000000      1.00000000</v>
    <i type="logical" name="LSPIRAL"> F  </i>
    <v name="QSPIRAL">      0.00000000      0.00000000      0.00000000</v>
    <i type="logical" name="LZEROZ"> F  </i>
   </separator>
   <separator name="electronic exchange-correlation" >
    <i type="logical" name="LASPH"> F  </i>
    <i type="logical" name="LMETAGGA"> F  </i>
   </separator>
   <separator name="electronic convergence" >
    <i type="int" name="NELM">   200</i>
    <i type="int" name="NELMDL">     0</i>
    <i type="int" name="NELMIN">     2</i>
    <i name="ENINI">    500.00000000</i>
    <separator name="electronic convergence detail" >
     <i type="logical" name="LDIAG"> T  </i>
     <i type="logical" name="LSUBROT"> F  </i>
     <i name="WEIMIN">      0.00000000</i>
     <i name="EBREAK">      0.00000002</i>
     <i name="DEPER">      0.30000000</i>
     <i type="int" name="NRMM">     4</i>
     <i name="TIME">      0.40000000</i>
    </separator>
   </separator>
   <separator name="electronic mixer" >
    <i name="AMIX">      0.40000000</i>
    <i name="BMIX">      1.00000000</i>
    <i name="AMIN">      0.10000000</i>
    <i name="AMIX_MAG">      1.60000000</i>
    <i name="BMIX_MAG">      1.00000000</i>
    <separator name="electronic mixer details" >
     <i type="int" name="IMIX">     4</i>
     <i type="logical" name="MIXFIRST"> F  </i>
     <i type="int" name="MAXMIX">   -45</i>
     <i name="WC">    100.00000000</i>
     <i type="int" name="INIMIX">     1</i>
     <i type="int" name="MIXPRE">     1</i>
     <i type="int" name="MREMOVE">     5</i>
    </separator>
   </separator>
   <separator name="electronic dipolcorrection" >
    <i type="logical" name="LDIPOL"> F  </i>
    <i type="logical" name="LMONO"> F  </i>
    <i type="int" name="IDIPOL">     0</i>
    <i name="EPSILON">      1.00000000</i>
    <v name="DIPOL">   -100.00000000   -100.00000000   -100.00000000</v>
    <i name="EFIELD">      0.00000000</i>
   </separator>
  </separator>
  <separator name="grids" >
   <i type="int" name="NGX">   108</i>
   <i type="int" name="NGY">   108</i>
   <i type="int" name="NGZ">   150</i>
   <i type="int" name="NGXF">   160</i>
   <i type="int" name="NGYF">   160</i>
   <i type="int" name="NGZF">   224</i>
   <i type="logical" name="ADDGRID"> F  </i>
  </separator>
  <separator name="ionic" >
   <i type="int" name="NSW">     0</i>
   <i type="int" name="IBRION">    -1</i>
   <i type="int" name="MDALGO">     0</i>
   <i type="int" name="ISIF">     2</i>
   <i name="PSTRESS">      0.00000000</i>
   <i name="EDIFFG">     -0.01000000</i>
   <i type="int" name="NFREE">     0</i>
   <i name="POTIM">      0.30000000</i>
   <i name="SMASS">     -3.00000000</i>
   <i name="SCALEE">      1.00000000</i>
  </separator>
  <separator name="ionic md" >
   <i name="TEBEG">      0.00010000</i>
   <i name="TEEND">      0.00010000</i>
   <i type="int" name="NBLOCK">     1</i>
   <i type="int" name="KBLOCK">     1</i>
   <i type="int" name="NPACO">   256</i>
   <i name="APACO">     16.00000000</i>
  </separator>
  <separator name="symmetry" >
   <i type="int" name="ISYM">     2</i>
   <i name="SYMPREC">      0.00001000</i>
  </separator>
  <separator name="dos" >
   <i type="int" name="LORBIT">     0</i>
   <v name="RWIGS">     -1.00000000     -1.00000000     -1.00000000     -1.00000000</v>
   <i type="int" name="NEDOS">   301</i>
   <i name="EMIN">     10.00000000</i>
   <i name="EMAX">    -10.00000000</i>
   <i name="EFERMI">      0.00000000</i>
  </separator>
  <separator name="writing" >
   <i type="int" name="NWRITE">     0</i>
   <i type="logical" name="LWAVE"> F  </i>
   <i type="logical" name="LDOWNSAMPLE"> F  </i>
   <i type="logical" name="LCHARG"> F  </i>
   <i type="logical" name="LPARD"> F  </i>
   <i type="logical" name="LVTOT"> F  </i>
   <i type="logical" name="LVHAR"> F  </i>
   <i type="logical" name="LELF"> F  </i>
   <i type="logical" name="LOPTICS"> F  </i>
   <v name="STM">      0.00000000      0.00000000      0.00000000      0.00000000      0.00000000      0.00000000      0.00000000</v>
  </separator>
  <separator name="performance" >
   <i type="int" name="NPAR">    16</i>
   <i type="int" name="NSIM">     4</i>
   <i type="int" name="NBLK">    -1</i>
   <i type="logical" name="LPLANE"> T  </i>
   <i type="logical" name="LSCALAPACK"> T  </i>
   <i type="logical" name="LSCAAWARE"> F  </i>
   <i type="logical" name="LSCALU"> F  </i>
   <i type="logical" name="LASYNC"> F  </i>
   <i type="logical" name="LORBITALREAL"> F  </i>
  </separator>
  <separator name="miscellaneous" >
   <i type="int" name="IDIOT">     3</i>
   <i type="int" name="ISPECIAL">     0</i>
   <i type="logical" name="LMUSIC"> F  </i>
   <v name="POMASS">     14.00100000      1.00000000     12.01100000     16.00000000</v>
   <v name="DARWINR">      0.00000000      0.00000000      0.00000000      0.00000000</v>
   <v name="DARWINV">      1.00000000      1.00000000      1.00000000      1.00000000</v>
   <i type="logical" name="LCORR"> T  </i>
  </separator>
  <i type="logical" name="GGA_COMPAT"> T  </i>
  <i type="logical" name="LBERRY"> F  </i>
  <i type="int" name="ICORELEVEL">     0</i>
  <i type="logical" name="LDAU"> F  </i>
  <i type="int" name="I_CONSTRAINED_M">     0</i>
  <separator name="electronic exchange-correlation" >
   <i type="string" name="GGA">PE</i>
   <i type="int" name="VOSKOWN">     0</i>
   <i type="logical" name="LHFCALC"> F  </i>
   <i type="string" name="PRECFOCK"></i>
   <i type="logical" name="LSYMGRAD"> F  </i>
   <i type="logical" name="LHFONE"> F  </i>
   <i type="logical" name="LRHFCALC"> F  </i>
   <i type="logical" name="LTHOMAS"> F  </i>
   <i type="logical" name="LMODELHF"> F  </i>
   <i name="ENCUT4O">     -1.00000000</i>
   <i type="int" name="EXXOEP">     0</i>
   <i type="int" name="FOURORBIT">     0</i>
   <i name="AEXX">      0.00000000</i>
   <i name="HFALPHA">      0.00000000</i>
   <i name="MCALPHA">      0.00000000</i>
   <i name="ALDAX">      1.00000000</i>
   <i name="AGGAX">      1.00000000</i>
   <i name="ALDAC">      1.00000000</i>
   <i name="AGGAC">      1.00000000</i>
   <i type="int" name="NKREDX">     1</i>
   <i type="int" name="NKREDY">     1</i>
   <i type="int" name="NKREDZ">     1</i>
   <i type="logical" name="SHIFTRED"> F  </i>
   <i type="logical" name="ODDONLY"> F  </i>
   <i type="logical" name="EVENONLY"> F  </i>
   <i type="int" name="LMAXFOCK">     0</i>
   <i type="int" name="NMAXFOCKAE">     0</i>
   <i type="logical" name="LFOCKAEDFT"> F  </i>
   <i name="HFSCREEN">      0.00000000</i>
   <i name="HFSCREENC">      0.00000000</i>
   <i type="int" name="NBANDSGWLOW">     0</i>
  </separator>
  <separator name="vdW DFT" >
   <i type="logical" name="LUSE_VDW"> F  </i>
   <i name="Zab_VDW">     -0.84910000</i>
   <i name="PARAM1">      0.12340000</i>
   <i name="PARAM2">      1.00000000</i>
   <i name="PARAM3">      0.00000000</i>
  </separator>
  <separator name="model GW" >
   <i type="int" name="MODEL_GW">     0</i>
   <i name="MODEL_EPS0">     39.23377510</i>
   <i name="MODEL_ALPHA">      1.00000000</i>
  </separator>
  <separator name="linear response parameters" >
   <i type="logical" name="LEPSILON"> F  </i>
   <i type="logical" name="LRPA"> F  </i>
   <i type="logical" name="LNABLA"> F  </i>
   <i type="logical" name="LVEL"> F  </i>
   <i type="int" name="KINTER">     0</i>
   <i name="CSHIFT">      0.10000000</i>
   <i name="OMEGAMAX">     -1.00000000</i>
   <i name="DEG_THRESHOLD">      0.00200000</i>
   <i name="RTIME">     -0.10000000</i>
   <i name="WPLASMAI">      0.00000000</i>
   <v name="DFIELD">      0.00000000      0.00000000      0.00000000</v>
   <v name="WPLASMA">      0.00000000      0.00000000      0.00000000      0.00000000      0.00000000      0.00000000      0.00000000      0.00000000      0.00000000</v>
  </separator>
  <separator name="orbital magnetization" >
   <i type="logical" name="NUCIND"> F  </i>
   <v name="MAGPOS">      0.00000000      0.00000000      0.00000000</v>
   <i type="logical" name="LNICSALL"> T  </i>
   <i type="logical" name="ORBITALMAG"> F  </i>
   <i type="logical" name="LMAGBLOCH"> F  </i>
   <i type="logical" name="LCHIMAG"> F  </i>
   <i type="logical" name="LGAUGE"> T  </i>
   <i type="int" name="MAGATOM">     0</i>
   <v name="MAGDIPOL">      0.00000000      0.00000000      0.00000000</v>
   <v name="AVECCONST">      0.00000000      0.00000000      0.00000000</v>
  </separator>
  <separator name="response functions" >
   <i type="logical" name="LADDER"> F  </i>
   <i type="logical" name="LRPAFORCE"> F  </i>
   <i type="logical" name="LFXC"> F  </i>
   <i type="logical" name="LHARTREE"> T  </i>
   <i type="int" name="IBSE">     0</i>
   <v type="int" name="KPOINT">    -1     0     0     0</v>
   <i type="logical" name="LTCTE"> F  </i>
   <i type="logical" name="LTETE"> F  </i>
   <i type="logical" name="LTRIPLET"> F  </i>
   <i type="logical" name="LFXCEPS"> F  </i>
   <i type="logical" name="LFXHEG"> F  </i>
   <i type="int" name="NATURALO">     2</i>
   <i type="logical" name="L2ORDER"> F  </i>
   <i type="logical" name="LMP2LT"> F  </i>
   <i type="logical" name="LUSEW"> F  </i>
   <i name="ENCUTGW">     -2.00000000</i>
   <i name="ENCUTGWSOFT">     -2.00000000</i>
   <i name="ENCUTLF">     -1.00000000</i>
   <i type="int" name="LMAXMP2">    -1</i>
   <i name="SCISSOR">      0.00000000</i>
   <i type="int" name="NOMEGA">     0</i>
   <i type="int" name="NOMEGAR">     0</i>
   <i type="int" name="NBANDSGW">    -1</i>
   <i type="int" name="NBANDSO">    -1</i>
   <i type="int" name="NBANDSV">    -1</i>
   <i type="int" name="NELM">   200</i>
   <i type="int" name="NELMHF">     1</i>
   <i type="int" name="DIM">     3</i>
   <i type="int" name="ANTIRES">     0</i>
   <i name="OMEGAMAX">    -30.00000000</i>
   <i name="OMEGAMIN">    -30.00000000</i>
   <i name="OMEGATL">   -200.00000000</i>
   <i type="int" name="OMEGAGRID">   140</i>
   <i name="CSHIFT">     -0.10000000</i>
   <i type="logical" name="SELFENERGY"> F  </i>
   <i type="logical" name="LSPECTRAL"> F  </i>
   <i type="logical" name="LSPECTRALGW"> F  </i>
   <i type="logical" name="LSINGLES"> F  </i>
   <i type="logical" name="LFERMIGW"> F  </i>
   <i type="logical" name="ODDONLYGW"> F  </i>
   <i type="logical" name="EVENONLYGW"> F  </i>
   <i type="int" name="NKREDLFX">     1</i>
   <i type="int" name="NKREDLFY">     1</i>
   <i type="int" name="NKREDLFZ">     1</i>
   <i type="int" name="MAXMEM">  2800</i>
   <i type="int" name="TELESCOPE">     0</i>
   <i type="int" name="TAUPAR">     1</i>
   <i type="int" name="OMEGAPAR">    -1</i>
   <i name="LAMBDA">      1.00000000</i>
  </separator>
  <separator name="External order field" >
   <i name="OFIELD_KAPPA">      0.00000000</i>
   <v name="OFIELD_K">      0.00000000      0.00000000      0.00000000</v>
   <i name="OFIELD_Q6_NEAR">      0.00000000</i>
   <i name="OFIELD_Q6_FAR">      0.00000000</i>
   <i name="OFIELD_A">      0.00000000</i>
  </separator>
  <separator name="solvation model" >
   <i type="logical" name="LSOL"> F  </i>
  </separator>
 </parameters>
 <atominfo>
  <atoms>      54 </atoms>
  <types>       4 </types>
  <array name="atoms" >
   <dimension dim="1">ion</dimension>
   <field type="string">element</field>
   <field type="int">atomtype</field>
   <set>
    <rc><c>N </c><c>   1</c></rc>
    <rc><c>N </c><c>   1</c></rc>
    <rc><c>N </c><c>   1</c></rc>
    <rc><c>N </c><c>   1</c></rc>
    <rc><c>N </c><c>   1</c></rc>
    <rc><c>N </c><c>   1</c></rc>
    <rc><c>N </c><c>   1</c></rc>
    <rc><c>N </c><c>   1</c></rc>
    <rc><c>N </c><c>   1</c></rc>
    <rc><c>N </c><c>   1</c></rc>
    <rc><c>N </c><c>   1</c></rc>
    <rc><c>N </c><c>   1</c></rc>
    <rc><c>H </c><c>   2</c></rc>
    <rc><c>H </c><c>   2</c></rc>
    <rc><c>H </c><c>   2</c></rc>
    <rc><c>H </c><c>   2</c></rc>
    <rc><c>H </c><c>   2</c></rc>
    <rc><c>H </c><c>   2</c></rc>
    <rc><c>C </c><c>   3</c></rc>
    <rc><c>C </c><c>   3</c></rc>
    <rc><c>C </c><c>   3</c></rc>
    <rc><c>C </c><c>   3</c></rc>
    <rc><c>C </c><c>   3</c></rc>
    <rc><c>C </c><c>   3</c></rc>
    <rc><c>C </c><c>   3</c></rc>
    <rc><c>C </c><c>   3</c></rc>
    <rc><c>C </c><c>   3</c></rc>
    <rc><c>C </c><c>   3</c></rc>
    <rc><c>C </c><c>   3</c></rc>
    <rc><c>C </c><c>   3</c></rc>
    <rc><c>C </c><c>   3</c></rc>
    <rc><c>C </c><c>   3</c></rc>
    <rc><c>C </c><c>   3</c></rc>
    <rc><c>C </c><c>   3</c></rc>
    <rc><c>C </c><c>   3</c></rc>
    <rc><c>C </c><c>   3</c></rc>
    <rc><c>C </c><c>   3</c></rc>
    <rc><c>C </c><c>   3</c></rc>
    <rc><c>C </c><c>   3</c></rc>
    <rc><c>C </c><c>   3</c></rc>
    <rc><c>C </c><c>   3</c></rc>
    <rc><c>C </c><c>   3</c></rc>
    <rc><c>O </c><c>   4</c></rc>
    <rc><c>O </c><c>   4</c></rc>
    <rc><c>O </c><c>   4</c></rc>
    <rc><c>O </c><c>   4</c></rc>
    <rc><c>O </c><c>   4</c></rc>
    <rc><c>O </c><c>   4</c></rc>
    <rc><c>O </c><c>   4</c></rc>
    <rc><c>O </c><c>   4</c></rc>
    <rc><c>O </c><c>   4</c></rc>
    <rc><c>O </c><c>   4</c></rc>
    <rc><c>O </c><c>   4</c></rc>
    <rc><c>O </c><c>   4</c></rc>
   </set>
  </array>
  <array name="atomtypes" >
   <dimension dim="1">type</dimension>
   <field type="int">atomspertype</field>
   <field type="string">element</field>
   <field>mass</field>
   <field>valence</field>
   <field type="string">pseudopotential</field>
   <set>
    <rc><c>  12</c><c>N </c><c>     14.00100000</c><c>      5.00000000</c><c>  PAW_PBE N 08Apr2002                   </c></rc>
    <rc><c>   6</c><c>H </c><c>      1.00000000</c><c>      1.00000000</c><c>  PAW_PBE H 15Jun2001                   </c></rc>
    <rc><c>  24</c><c>C </c><c>     12.01100000</c><c>      4.00000000</c><c>  PAW_PBE C 08Apr2002                   </c></rc>
    <rc><c>  12</c><c>O </c><c>     16.00000000</c><c>      6.00000000</c><c>  PAW_PBE O 08Apr2002                   </c></rc>
   </set>
  </array>
 </atominfo>
 <structure name="initialpos" >
  <crystal>
   <varray name="basis" >
    <v>      14.43883845       0.17160370       0.00000000 </v>
    <v>      -7.05191835      12.14376442       0.00000000 </v>
    <v>       0.00000000       0.00000000      20.00000000 </v>
   </varray>
   <i name="volume">   3531.03975940 </i>
   <varray name="rec_basis" >
    <v>       0.06878294       0.03994245       0.00000000 </v>
    <v>      -0.00097197       0.08178236       0.00000000 </v>
    <v>       0.00000000       0.00000000       0.05000000 </v>
   </varray>
  </crystal>
  <varray name="positions" >
   <v>       0.47977324       0.07219467       0.56720974 </v>
   <v>       0.56446058       0.29119933       0.51720625 </v>
   <v>       0.72733633       0.28817937       0.52259955 </v>
   <v>       0.72970953       0.45566902       0.50080784 </v>
   <v>       0.43988864       0.72474656       0.51792946 </v>
   <v>       0.27599356       0.72413451       0.52075072 </v>
   <v>       0.27810438       0.55725635       0.50214297 </v>
   <v>       0.94706346       0.56303839       0.50987549 </v>
   <v>       0.61525244       0.56584084       0.50404299 </v>
   <v>       0.05946786       0.44960966       0.51888976 </v>
   <v>       0.40186479       0.45940564       0.47556207 </v>
   <v>       0.52515927       0.94190991       0.48665881 </v>
   <v>       0.66041520       0.95119871       0.43337779 </v>
   <v>       0.10780143       0.76934577       0.58753759 </v>
   <v>       0.62549092       0.75420637       0.41301794 </v>
   <v>       0.37838611       0.07166665       0.63232262 </v>
   <v>       0.88597060       0.23753148       0.44581595 </v>
   <v>       0.27742249       0.30959408       0.44909692 </v>
   <v>       0.58327287       0.05040289       0.48240765 </v>
   <v>       0.66660361       0.09143823       0.42748909 </v>
   <v>       0.56033629       0.11788201       0.52381508 </v>
   <v>       0.62352692       0.39873595       0.50359010 </v>
   <v>       0.62124663       0.23977351       0.52142903 </v>
   <v>       0.77793666       0.39696567       0.51411203 </v>
   <v>       0.38424535       0.61690226       0.50595649 </v>
   <v>       0.38174042       0.77448821       0.52412672 </v>
   <v>       0.22801915       0.61542117       0.51115348 </v>
   <v>       0.05309911       0.61627789       0.50780131 </v>
   <v>       0.11017255       0.55829575       0.51169781 </v>
   <v>       0.10227094       0.73771398       0.49302498 </v>
   <v>       0.56236942       0.62122906       0.50185227 </v>
   <v>       0.44988557       0.56397866       0.49476681 </v>
   <v>       0.63084655       0.74426839       0.50995514 </v>
   <v>       0.42117181       0.96302812       0.57125365 </v>
   <v>       0.44312890       0.89618103       0.52920367 </v>
   <v>       0.33729865       0.92227016       0.62583440 </v>
   <v>       0.89596000       0.45393478       0.51609470 </v>
   <v>       0.95328533       0.39647720       0.52216117 </v>
   <v>       0.90627918       0.27632600       0.53976111 </v>
   <v>       0.56454219       0.45874801       0.49075306 </v>
   <v>       0.45771237       0.40786481       0.46775568 </v>
   <v>       0.40202979       0.30254097       0.42802776 </v>
   <v>       0.70169113       0.18170133       0.40211227 </v>
   <v>       0.69648781       0.01979894       0.40725409 </v>
   <v>       0.12067977       0.76986109       0.43564669 </v>
   <v>       0.11515145       0.80545221       0.54443260 </v>
   <v>       0.66708872       0.78812780       0.56281462 </v>
   <v>       0.65596350       0.80289895       0.45144072 </v>
   <v>       0.28710387       0.82705978       0.64354676 </v>
   <v>       0.32530949       0.00238554       0.65380656 </v>
   <v>       0.89794270       0.24857133       0.59787034 </v>
   <v>       0.88503361       0.20468059       0.48919284 </v>
   <v>       0.44953064       0.26468674       0.39781809 </v>
   <v>       0.29549871       0.25869117       0.42600151 </v>
  </varray>
 </structure>
 <calculation>
  <scstep>
   <time name="dav">   79.32   79.97</time>
   <time name="total">   79.41   80.07</time>
   <energy>
    <i name="alphaZ">     69.18505960 </i>
    <i name="ewald">  29805.50881832 </i>
    <i name="hartreedc"> -39844.49106146 </i>
    <i name="XCdc">    930.24491562 </i>
    <i name="pawpsdc">  22399.42364509 </i>
    <i name="pawaedc"> -22456.09305606 </i>
    <i name="eentropy">     -0.00000000 </i>
    <i name="bandstr">  -3282.27770476 </i>
    <i name="atom">  11969.17610806 </i>
    <i name="e_fr_energy">   -409.32327559 </i>
    <i name="e_wo_entrp">   -409.32327559 </i>
    <i name="e_0_energy">   -409.32327559 </i>
   </energy>
  </scstep>
  <scstep>
   <time name="dav">   89.22   89.96</time>
   <time name="total">   89.23   89.98</time>
   <energy>
    <i name="e_fr_energy">   -414.36320499 </i>
    <i name="e_wo_entrp">   -414.36320499 </i>
    <i name="e_0_energy">   -414.36320499 </i>
   </energy>
  </scstep>
  <scstep>
   <time name="dav">   96.30   97.03</time>
   <time name="total">   96.31   97.04</time>
   <energy>
    <i name="e_fr_energy">   -414.45597909 </i>
    <i name="e_wo_entrp">   -414.45597909 </i>
    <i name="e_0_energy">   -414.45597909 </i>
   </energy>
  </scstep>
  <scstep>
   <time name="dav">   89.49   90.13</time>
   <time name="total">   89.50   90.14</time>
   <energy>
    <i name="e_fr_energy">   -414.45818264 </i>
    <i name="e_wo_entrp">   -414.45818264 </i>
    <i name="e_0_energy">   -414.45818264 </i>
   </energy>
  </scstep>
  <scstep>
   <time name="dav">   93.64   94.33</time>
   <time name="total">   93.65   94.34</time>
   <energy>
    <i name="e_fr_energy">   -414.45827654 </i>
    <i name="e_wo_entrp">   -414.45827654 </i>
    <i name="e_0_energy">   -414.45827654 </i>
   </energy>
  </scstep>
  <scstep>
   <time name="dav">   76.75   77.32</time>
   <time name="total">   76.77   77.33</time>
   <energy>
    <i name="alphaZ">     69.18505960 </i>
    <i name="ewald">  29805.50881832 </i>
    <i name="hartreedc"> -39844.49106146 </i>
    <i name="XCdc">    930.24491562 </i>
    <i name="pawpsdc">  22399.42364509 </i>
    <i name="pawaedc"> -22456.09305606 </i>
    <i name="eentropy">     -0.00000000 </i>
    <i name="bandstr">  -3287.41271032 </i>
    <i name="atom">  11969.17610806 </i>
    <i name="e_fr_energy">   -414.45828115 </i>
    <i name="e_wo_entrp">   -414.45828115 </i>
    <i name="e_0_energy">   -414.45828115 </i>
   </energy>
  </scstep>
  <structure>
   <crystal>
    <varray name="basis" >
     <v>      14.43883845       0.17160370       0.00000000 </v>
     <v>      -7.05191835      12.14376442       0.00000000 </v>
     <v>       0.00000000       0.00000000      20.00000000 </v>
    </varray>
    <i name="volume">   3531.03975940 </i>
    <varray name="rec_basis" >
     <v>       0.06878294       0.03994245       0.00000000 </v>
     <v>      -0.00097197       0.08178236       0.00000000 </v>
     <v>       0.00000000       0.00000000       0.05000000 </v>
    </varray>
   </crystal>
   <varray name="positions" >
    <v>       0.47977324       0.07219467       0.56720974 </v>
    <v>       0.56446058       0.29119933       0.51720625 </v>
    <v>       0.72733633       0.28817937       0.52259955 </v>
    <v>       0.72970953       0.45566902       0.50080784 </v>
    <v>       0.43988864       0.72474656       0.51792946 </v>
    <v>       0.27599356       0.72413451       0.52075072 </v>
    <v>       0.27810438       0.55725635       0.50214297 </v>
    <v>       0.94706346       0.56303839       0.50987549 </v>
    <v>       0.61525244       0.56584084       0.50404299 </v>
    <v>       0.05946786       0.44960966       0.51888976 </v>
    <v>       0.40186479       0.45940564       0.47556207 </v>
    <v>       0.52515927       0.94190991       0.48665881 </v>
    <v>       0.66041520       0.95119871       0.43337779 </v>
    <v>       0.10780143       0.76934577       0.58753759 </v>
    <v>       0.62549092       0.75420637       0.41301794 </v>
    <v>       0.37838611       0.07166665       0.63232262 </v>
    <v>       0.88597060       0.23753148       0.44581595 </v>
    <v>       0.27742249       0.30959408       0.44909692 </v>
    <v>       0.58327287       0.05040289       0.48240765 </v>
    <v>       0.66660361       0.09143823       0.42748909 </v>
    <v>       0.56033629       0.11788201       0.52381508 </v>
    <v>       0.62352692       0.39873595       0.50359010 </v>
    <v>       0.62124663       0.23977351       0.52142903 </v>
    <v>       0.77793666       0.39696567       0.51411203 </v>
    <v>       0.38424535       0.61690226       0.50595649 </v>
    <v>       0.38174042       0.77448821       0.52412672 </v>
    <v>       0.22801915       0.61542117       0.51115348 </v>
    <v>       0.05309911       0.61627789       0.50780131 </v>
    <v>       0.11017255       0.55829575       0.51169781 </v>
    <v>       0.10227094       0.73771398       0.49302498 </v>
    <v>       0.56236942       0.62122906       0.50185227 </v>
    <v>       0.44988557       0.56397866       0.49476681 </v>
    <v>       0.63084655       0.74426839       0.50995514 </v>
    <v>       0.42117181       0.96302812       0.57125365 </v>
    <v>       0.44312890       0.89618103       0.52920367 </v>
    <v>       0.33729865       0.92227016       0.62583440 </v>
    <v>       0.89596000       0.45393478       0.51609470 </v>
    <v>       0.95328533       0.39647720       0.52216117 </v>
    <v>       0.90627918       0.27632600       0.53976111 </v>
    <v>       0.56454219       0.45874801       0.49075306 </v>
    <v>       0.45771237       0.40786481       0.46775568 </v>
    <v>       0.40202979       0.30254097       0.42802776 </v>
    <v>       0.70169113       0.18170133       0.40211227 </v>
    <v>       0.69648781       0.01979894       0.40725409 </v>
    <v>       0.12067977       0.76986109       0.43564669 </v>
    <v>       0.11515145       0.80545221       0.54443260 </v>
    <v>       0.66708872       0.78812780       0.56281462 </v>
    <v>       0.65596350       0.80289895       0.45144072 </v>
    <v>       0.28710387       0.82705978       0.64354676 </v>
    <v>       0.32530949       0.00238554       0.65380656 </v>
    <v>       0.89794270       0.24857133       0.59787034 </v>
    <v>       0.88503361       0.20468059       0.48919284 </v>
    <v>       0.44953064       0.26468674       0.39781809 </v>
    <v>       0.29549871       0.25869117       0.42600151 </v>
   </varray>
  </structure>
  <varray name="forces" >
   <v>      -0.00324265       0.00458181      -0.00118732 </v>
   <v>      -0.00027146       0.00240543       0.00034173 </v>
   <v>       0.00401877       0.00164699       0.00046244 </v>
   <v>      -0.00616109      -0.00050489      -0.00103374 </v>
   <v>      -0.00021027       0.00247778      -0.00315804 </v>
   <v>      -0.00235472       0.00174740      -0.00057763 </v>
   <v>       0.00319308      -0.00485491       0.00325968 </v>
   <v>      -0.00121615       0.00477425      -0.00120594 </v>
   <v>       0.00158844       0.00096656       0.00034009 </v>
   <v>       0.00301365      -0.00212960       0.00017392 </v>
   <v>      -0.00224061      -0.00062763      -0.00100460 </v>
   <v>       0.00070350       0.00506735      -0.00148959 </v>
   <v>       0.00126578      -0.00428807       0.00246673 </v>
   <v>       0.00254344      -0.00123654      -0.00183913 </v>
   <v>      -0.00009788      -0.00011532       0.00205937 </v>
   <v>      -0.00126870      -0.00118065      -0.00327630 </v>
   <v>       0.00004697       0.00126109       0.00399064 </v>
   <v>       0.00090914      -0.00300728      -0.00093870 </v>
   <v>       0.00256489      -0.00461441      -0.00028360 </v>
   <v>      -0.00173593       0.00405995       0.00120021 </v>
   <v>      -0.00033881      -0.00198583       0.00298589 </v>
   <v>       0.00188631       0.00061059      -0.00007651 </v>
   <v>      -0.00185125       0.00178227       0.00257494 </v>
   <v>      -0.00142302      -0.00386492       0.00099115 </v>
   <v>      -0.00130991       0.00416049      -0.00242917 </v>
   <v>       0.00262031      -0.00155937      -0.00498708 </v>
   <v>      -0.00821211       0.00349452       0.00011449 </v>
   <v>      -0.00271835       0.00127976      -0.00153600 </v>
   <v>       0.00273502      -0.00017968       0.00134565 </v>
   <v>       0.00012089       0.00062113      -0.00323920 </v>
   <v>       0.00156731       0.00100958      -0.00124678 </v>
   <v>      -0.00269376      -0.00136564      -0.00400765 </v>
   <v>      -0.00106794       0.00266387      -0.00237925 </v>
   <v>      -0.00229305      -0.00115593      -0.00054275 </v>
   <v>       0.00077437       0.00026606      -0.00091692 </v>
   <v>      -0.00137271      -0.00503101       0.00075567 </v>
   <v>      -0.00210118      -0.00152702       0.00165682 </v>
   <v>       0.00026518       0.00142962       0.00260200 </v>
   <v>       0.00079166      -0.00154313       0.00461419 </v>
   <v>      -0.00024218      -0.00167658       0.00034491 </v>
   <v>       0.00018578      -0.00223550       0.00102080 </v>
   <v>       0.00162548      -0.00594340      -0.00153954 </v>
   <v>       0.00022487       0.00407269      -0.00056433 </v>
   <v>       0.00109334       0.00283343      -0.00546599 </v>
   <v>       0.00108016      -0.00174200      -0.00210519 </v>
   <v>      -0.00092045       0.00216613       0.00019638 </v>
   <v>       0.00200488       0.00186046       0.00271415 </v>
   <v>       0.00278077      -0.00045510       0.00053657 </v>
   <v>       0.00087519      -0.00400712      -0.00065087 </v>
   <v>      -0.00297955       0.00152955      -0.00002158 </v>
   <v>       0.00275682       0.00110584       0.00511780 </v>
   <v>       0.00811668      -0.00109526       0.00429426 </v>
   <v>       0.00234888      -0.00180666       0.00010332 </v>
   <v>      -0.00537781      -0.00014110       0.00143956 </v>
  </varray>
  <varray name="stress" >
   <v>      -0.01188483      -0.00358674      -0.01718595 </v>
   <v>      -0.00358674       0.00626230       0.03668001 </v>
   <v>      -0.01718596       0.03668001      -0.40438392 </v>
  </varray>
  <energy>
   <i name="e_fr_energy">   -415.98433176 </i>
   <i name="e_wo_entrp">   -415.98433176 </i>
   <i name="e_0_energy">     -0.00000000 </i>
  </energy>
  <time name="totalsc">  583.97  588.52</time>
  <eigenvalues>
   <array>
    <dimension dim="1">band</dimension>
    <dimension dim="2">kpoint</dimension>
    <dimension dim="3">spin</dimension>
    <field>eigene</field>
    <field>occ</field>
    <set>
     <set comment="spin 1">
      <set comment="kpoint 1">
       <r>  -27.6371    1.0000 </r>
       <r>  -27.5431    1.0000 </r>
       <r>  -27.4680    1.0000 </r>
       <r>  -27.2735    1.0000 </r>
       <r>  -27.1917    1.0000 </r>
       <r>  -27.1713    1.0000 </r>
       <r>  -26.2491    1.0000 </r>
       <r>  -26.0580    1.0000 </r>
       <r>  -25.6196    1.0000 </r>
       <r>  -25.4947    1.0000 </r>
       <r>  -25.4248    1.0000 </r>
       <r>  -25.3570    1.0000 </r>
       <r>  -25.3166    1.0000 </r>
       <r>  -25.1880    1.0000 </r>
       <r>  -25.1349    1.0000 </r>
       <r>  -25.1005    1.0000 </r>
       <r>  -24.8904    1.0000 </r>
       <r>  -23.7361    1.0000 </r>
       <r>  -23.5612    1.0000 </r>
       <r>  -23.2524    1.0000 </r>
       <r>  -23.0241    1.0000 </r>
       <r>  -22.9067    1.0000 </r>
       <r>  -22.8582    1.0000 </r>
       <r>  -22.6636    1.0000 </r>
       <r>  -20.6405    1.0000 </r>
       <r>  -20.4802    1.0000 </r>
       <r>  -20.2046    1.0000 </r>
       <r>  -18.8929    1.0000 </r>
       <r>  -18.6998    1.0000 </r>
       <r>  -17.9431    1.0000 </r>
       <r>  -17.6715    1.0000 </r>
       <r>  -17.5618    1.0000 </r>
       <r>  -17.2832    1.0000 </r>
       <r>  -17.1818    1.0000 </r>
       <r>  -17.0427    1.0000 </r>
       <r>  -15.8829    1.0000 </r>
       <r>  -15.7217    1.0000 </r>
       <r>  -15.4994    1.0000 </r>
       <r>  -15.3162    1.0000 </r>
       <r>  -15.1038    1.0000 </r>
       <r>  -14.9684    1.0000 </r>
       <r>  -14.9366    1.0000 </r>
       <r>  -14.8552    1.0000 </r>
       <r>  -14.8032    1.0000 </r>
       <r>  -14.4736    1.0000 </r>
       <r>  -14.3630    1.0000 </r>
       <r>  -14.0252    1.0000 </r>
       <r>  -13.9567    1.0000 </r>
       <r>  -13.8825    1.0000 </r>
       <r>  -13.7981    1.0000 </r>
       <r>  -13.6677    1.0000 </r>
       <r>  -13.5320    1.0000 </r>
       <r>  -13.2007    1.0000 </r>
       <r>  -13.0850    1.0000 </r>
       <r>  -12.9106    1.0000 </r>
       <r>  -12.2187    1.0000 </r>
       <r>  -11.9895    1.0000 </r>
       <r>  -11.7987    1.0000 </r>
       <r>  -11.6995    1.0000 </r>
       <r>  -11.5767    1.0000 </r>
       <r>  -11.1661    1.0000 </r>
       <r>  -11.1309    1.0000 </r>
       <r>  -11.0856    1.0000 </r>
       <r>  -11.0560    1.0000 </r>
       <r>  -11.0001    1.0000 </r>
       <r>  -10.9124    1.0000 </r>
       <r>  -10.8478    1.0000 </r>
       <r>  -10.6902    1.0000 </r>
       <r>  -10.5807    1.0000 </r>
       <r>  -10.4892    1.0000 </r>
       <r>  -10.4396    1.0000 </r>
       <r>  -10.4131    1.0000 </r>
       <r>  -10.3321    1.0000 </r>
       <r>  -10.2279    1.0000 </r>
       <r>  -10.1635    1.0000 </r>
       <r>  -10.1157    1.0000 </r>
       <r>  -10.0460    1.0000 </r>
       <r>   -9.6420    1.0000 </r>
       <r>   -9.5423    1.0000 </r>
       <r>   -9.4434    1.0000 </r>
       <r>   -9.3718    1.0000 </r>
       <r>   -9.2055    1.0000 </r>
       <r>   -9.1534    1.0000 </r>
       <r>   -9.1254    1.0000 </r>
       <r>   -9.0665    1.0000 </r>
       <r>   -9.0479    1.0000 </r>
       <r>   -8.8310    1.0000 </r>
       <r>   -8.7234    1.0000 </r>
       <r>   -8.5157    1.0000 </r>
       <r>   -8.4778    1.0000 </r>
       <r>   -8.4354    1.0000 </r>
       <r>   -8.2216    1.0000 </r>
       <r>   -7.8366    1.0000 </r>
       <r>   -7.8006    1.0000 </r>
       <r>   -7.7076    1.0000 </r>
       <r>   -7.6552    1.0000 </r>
       <r>   -7.4961    1.0000 </r>
       <r>   -7.3710    1.0000 </r>
       <r>   -7.3281    1.0000 </r>
       <r>   -7.2780    1.0000 </r>
       <r>   -7.1930    1.0000 </r>
       <r>   -7.1540    1.0000 </r>
       <r>   -7.1376    1.0000 </r>
       <r>   -7.0895    1.0000 </r>
       <r>   -7.0197    1.0000 </r>
       <r>   -6.8847    1.0000 </r>
       <r>   -6.6330    1.0000 </r>
       <r>   -6.5024    1.0000 </r>
       <r>   -6.4741    1.0000 </r>
       <r>   -6.3816    1.0000 </r>
       <r>   -6.3492    1.0000 </r>
       <r>   -6.2289    1.0000 </r>
       <r>   -6.1496    1.0000 </r>
       <r>   -6.1057    1.0000 </r>
       <r>   -6.0846    1.0000 </r>
       <r>   -5.9019    1.0000 </r>
       <r>   -5.4524    1.0000 </r>
       <r>   -3.9813    0.0000 </r>
       <r>   -3.8953    0.0000 </r>
       <r>   -3.5119    0.0000 </r>
       <r>   -3.1438    0.0000 </r>
       <r>   -2.9719    0.0000 </r>
       <r>   -2.6383    0.0000 </r>
       <r>   -2.5042    0.0000 </r>
       <r>   -2.4296    0.0000 </r>
       <r>   -1.2772    0.0000 </r>
       <r>   -1.1840    0.0000 </r>
       <r>   -1.1104    0.0000 </r>
       <r>   -0.7757    0.0000 </r>
       <r>   -0.7145    0.0000 </r>
       <r>   -0.5801    0.0000 </r>
       <r>   -0.4963    0.0000 </r>
       <r>   -0.0953    0.0000 </r>
       <r>    0.0587    0.0000 </r>
       <r>    0.3426    0.0000 </r>
       <r>    0.4321    0.0000 </r>
       <r>    0.5789    0.0000 </r>
       <r>    0.7437    0.0000 </r>
       <r>    0.7485    0.0000 </r>
       <r>    0.8263    0.0000 </r>
       <r>    0.9981    0.0000 </r>
       <r>    1.1308    0.0000 </r>
       <r>    1.2351    0.0000 </r>
       <r>    1.2597    0.0000 </r>
       <r>    1.4121    0.0000 </r>
       <r>    1.4798    0.0000 </r>
       <r>    1.6340    0.0000 </r>
       <r>    1.7300    0.0000 </r>
       <r>    1.8382    0.0000 </r>
       <r>    1.9484    0.0000 </r>
       <r>    1.9719    0.0000 </r>
       <r>    2.0232    0.0000 </r>
       <r>    2.0771    0.0000 </r>
       <r>    2.0977    0.0000 </r>
       <r>    2.1236    0.0000 </r>
       <r>    2.1827    0.0000 </r>
       <r>    2.2167    0.0000 </r>
       <r>    2.2357    0.0000 </r>
       <r>    2.2624    0.0000 </r>
       <r>    2.2822    0.0000 </r>
      </set>
      <set comment="kpoint 2">
       <r>  -27.6371    1.0000 </r>
       <r>  -27.5431    1.0000 </r>
       <r>  -27.4680    1.0000 </r>
       <r>  -27.2735    1.0000 </r>
       <r>  -27.1917    1.0000 </r>
       <r>  -27.1713    1.0000 </r>
       <r>  -26.2490    1.0000 </r>
       <r>  -26.0581    1.0000 </r>
       <r>  -25.6196    1.0000 </r>
       <r>  -25.4946    1.0000 </r>
       <r>  -25.4248    1.0000 </r>
       <r>  -25.3570    1.0000 </r>
       <r>  -25.3167    1.0000 </r>
       <r>  -25.1880    1.0000 </r>
       <r>  -25.1350    1.0000 </r>
       <r>  -25.1005    1.0000 </r>
       <r>  -24.8905    1.0000 </r>
       <r>  -23.7359    1.0000 </r>
       <r>  -23.5613    1.0000 </r>
       <r>  -23.2524    1.0000 </r>
       <r>  -23.0242    1.0000 </r>
       <r>  -22.9069    1.0000 </r>
       <r>  -22.8579    1.0000 </r>
       <r>  -22.6637    1.0000 </r>
       <r>  -20.6405    1.0000 </r>
       <r>  -20.4804    1.0000 </r>
       <r>  -20.2046    1.0000 </r>
       <r>  -18.8922    1.0000 </r>
       <r>  -18.6992    1.0000 </r>
       <r>  -17.9445    1.0000 </r>
       <r>  -17.6722    1.0000 </r>
       <r>  -17.5653    1.0000 </r>
       <r>  -17.2831    1.0000 </r>
       <r>  -17.1778    1.0000 </r>
       <r>  -17.0412    1.0000 </r>
       <r>  -15.8841    1.0000 </r>
       <r>  -15.7218    1.0000 </r>
       <r>  -15.4996    1.0000 </r>
       <r>  -15.3157    1.0000 </r>
       <r>  -15.1039    1.0000 </r>
       <r>  -14.9693    1.0000 </r>
       <r>  -14.9365    1.0000 </r>
       <r>  -14.8555    1.0000 </r>
       <r>  -14.8015    1.0000 </r>
       <r>  -14.4733    1.0000 </r>
       <r>  -14.3637    1.0000 </r>
       <r>  -14.0278    1.0000 </r>
       <r>  -13.9550    1.0000 </r>
       <r>  -13.8827    1.0000 </r>
       <r>  -13.7992    1.0000 </r>
       <r>  -13.6671    1.0000 </r>
       <r>  -13.5306    1.0000 </r>
       <r>  -13.2059    1.0000 </r>
       <r>  -13.0791    1.0000 </r>
       <r>  -12.9104    1.0000 </r>
       <r>  -12.2190    1.0000 </r>
       <r>  -11.9898    1.0000 </r>
       <r>  -11.7991    1.0000 </r>
       <r>  -11.6999    1.0000 </r>
       <r>  -11.5760    1.0000 </r>
       <r>  -11.1665    1.0000 </r>
       <r>  -11.1309    1.0000 </r>
       <r>  -11.0855    1.0000 </r>
       <r>  -11.0560    1.0000 </r>
       <r>  -10.9999    1.0000 </r>
       <r>  -10.9127    1.0000 </r>
       <r>  -10.8476    1.0000 </r>
       <r>  -10.6901    1.0000 </r>
       <r>  -10.5808    1.0000 </r>
       <r>  -10.4892    1.0000 </r>
       <r>  -10.4396    1.0000 </r>
       <r>  -10.4131    1.0000 </r>
       <r>  -10.3323    1.0000 </r>
       <r>  -10.2279    1.0000 </r>
       <r>  -10.1634    1.0000 </r>
       <r>  -10.1158    1.0000 </r>
       <r>  -10.0464    1.0000 </r>
       <r>   -9.6417    1.0000 </r>
       <r>   -9.5414    1.0000 </r>
       <r>   -9.4433    1.0000 </r>
       <r>   -9.3718    1.0000 </r>
       <r>   -9.2056    1.0000 </r>
       <r>   -9.1532    1.0000 </r>
       <r>   -9.1254    1.0000 </r>
       <r>   -9.0666    1.0000 </r>
       <r>   -9.0480    1.0000 </r>
       <r>   -8.8311    1.0000 </r>
       <r>   -8.7243    1.0000 </r>
       <r>   -8.5159    1.0000 </r>
       <r>   -8.4780    1.0000 </r>
       <r>   -8.4351    1.0000 </r>
       <r>   -8.2214    1.0000 </r>
       <r>   -7.8367    1.0000 </r>
       <r>   -7.8004    1.0000 </r>
       <r>   -7.7076    1.0000 </r>
       <r>   -7.6552    1.0000 </r>
       <r>   -7.4962    1.0000 </r>
       <r>   -7.3707    1.0000 </r>
       <r>   -7.3281    1.0000 </r>
       <r>   -7.2780    1.0000 </r>
       <r>   -7.1928    1.0000 </r>
       <r>   -7.1541    1.0000 </r>
       <r>   -7.1377    1.0000 </r>
       <r>   -7.0893    1.0000 </r>
       <r>   -7.0197    1.0000 </r>
       <r>   -6.8849    1.0000 </r>
       <r>   -6.6329    1.0000 </r>
       <r>   -6.5024    1.0000 </r>
       <r>   -6.4739    1.0000 </r>
       <r>   -6.3821    1.0000 </r>
       <r>   -6.3487    1.0000 </r>
       <r>   -6.2291    1.0000 </r>
       <r>   -6.1497    1.0000 </r>
       <r>   -6.1056    1.0000 </r>
       <r>   -6.0847    1.0000 </r>
       <r>   -5.9019    1.0000 </r>
       <r>   -5.4524    1.0000 </r>
       <r>   -3.9806    0.0000 </r>
       <r>   -3.8952    0.0000 </r>
       <r>   -3.5119    0.0000 </r>
       <r>   -3.1448    0.0000 </r>
       <r>   -2.9753    0.0000 </r>
       <r>   -2.6366    0.0000 </r>
       <r>   -2.5040    0.0000 </r>
       <r>   -2.4269    0.0000 </r>
       <r>   -1.2789    0.0000 </r>
       <r>   -1.1832    0.0000 </r>
       <r>   -1.1099    0.0000 </r>
       <r>   -0.7758    0.0000 </r>
       <r>   -0.7155    0.0000 </r>
       <r>   -0.5804    0.0000 </r>
       <r>   -0.4960    0.0000 </r>
       <r>   -0.0955    0.0000 </r>
       <r>    0.0587    0.0000 </r>
       <r>    0.3423    0.0000 </r>
       <r>    0.4311    0.0000 </r>
       <r>    0.5782    0.0000 </r>
       <r>    0.7431    0.0000 </r>
       <r>    0.7516    0.0000 </r>
       <r>    0.8272    0.0000 </r>
       <r>    0.9970    0.0000 </r>
       <r>    1.1333    0.0000 </r>
       <r>    1.2331    0.0000 </r>
       <r>    1.2597    0.0000 </r>
       <r>    1.4120    0.0000 </r>
       <r>    1.4816    0.0000 </r>
       <r>    1.6360    0.0000 </r>
       <r>    1.7300    0.0000 </r>
       <r>    1.8400    0.0000 </r>
       <r>    1.9431    0.0000 </r>
       <r>    1.9669    0.0000 </r>
       <r>    2.0279    0.0000 </r>
       <r>    2.0787    0.0000 </r>
       <r>    2.0920    0.0000 </r>
       <r>    2.1303    0.0000 </r>
       <r>    2.1661    0.0000 </r>
       <r>    2.2256    0.0000 </r>
       <r>    2.2434    0.0000 </r>
       <r>    2.2597    0.0000 </r>
       <r>    2.2928    0.0000 </r>
      </set>
      <set comment="kpoint 3">
       <r>  -27.6371    1.0000 </r>
       <r>  -27.5431    1.0000 </r>
       <r>  -27.4680    1.0000 </r>
       <r>  -27.2735    1.0000 </r>
       <r>  -27.1917    1.0000 </r>
       <r>  -27.1713    1.0000 </r>
       <r>  -26.2490    1.0000 </r>
       <r>  -26.0583    1.0000 </r>
       <r>  -25.6196    1.0000 </r>
       <r>  -25.4943    1.0000 </r>
       <r>  -25.4245    1.0000 </r>
       <r>  -25.3570    1.0000 </r>
       <r>  -25.3169    1.0000 </r>
       <r>  -25.1880    1.0000 </r>
       <r>  -25.1351    1.0000 </r>
       <r>  -25.1005    1.0000 </r>
       <r>  -24.8907    1.0000 </r>
       <r>  -23.7354    1.0000 </r>
       <r>  -23.5615    1.0000 </r>
       <r>  -23.2524    1.0000 </r>
       <r>  -23.0245    1.0000 </r>
       <r>  -22.9074    1.0000 </r>
       <r>  -22.8569    1.0000 </r>
       <r>  -22.6640    1.0000 </r>
       <r>  -20.6403    1.0000 </r>
       <r>  -20.4809    1.0000 </r>
       <r>  -20.2047    1.0000 </r>
       <r>  -18.8898    1.0000 </r>
       <r>  -18.6975    1.0000 </r>
       <r>  -17.9488    1.0000 </r>
       <r>  -17.6744    1.0000 </r>
       <r>  -17.5751    1.0000 </r>
       <r>  -17.2829    1.0000 </r>
       <r>  -17.1665    1.0000 </r>
       <r>  -17.0365    1.0000 </r>
       <r>  -15.8876    1.0000 </r>
       <r>  -15.7223    1.0000 </r>
       <r>  -15.5001    1.0000 </r>
       <r>  -15.3143    1.0000 </r>
       <r>  -15.1042    1.0000 </r>
       <r>  -14.9719    1.0000 </r>
       <r>  -14.9363    1.0000 </r>
       <r>  -14.8562    1.0000 </r>
       <r>  -14.7968    1.0000 </r>
       <r>  -14.4725    1.0000 </r>
       <r>  -14.3657    1.0000 </r>
       <r>  -14.0349    1.0000 </r>
       <r>  -13.9507    1.0000 </r>
       <r>  -13.8832    1.0000 </r>
       <r>  -13.8020    1.0000 </r>
       <r>  -13.6654    1.0000 </r>
       <r>  -13.5267    1.0000 </r>
       <r>  -13.2188    1.0000 </r>
       <r>  -13.0641    1.0000 </r>
       <r>  -12.9098    1.0000 </r>
       <r>  -12.2200    1.0000 </r>
       <r>  -11.9907    1.0000 </r>
       <r>  -11.8002    1.0000 </r>
       <r>  -11.7013    1.0000 </r>
       <r>  -11.5742    1.0000 </r>
       <r>  -11.1675    1.0000 </r>
       <r>  -11.1309    1.0000 </r>
       <r>  -11.0853    1.0000 </r>
       <r>  -11.0559    1.0000 </r>
       <r>  -10.9993    1.0000 </r>
       <r>  -10.9135    1.0000 </r>
       <r>  -10.8470    1.0000 </r>
       <r>  -10.6898    1.0000 </r>
       <r>  -10.5811    1.0000 </r>
       <r>  -10.4893    1.0000 </r>
       <r>  -10.4396    1.0000 </r>
       <r>  -10.4132    1.0000 </r>
       <r>  -10.3329    1.0000 </r>
       <r>  -10.2281    1.0000 </r>
       <r>  -10.1632    1.0000 </r>
       <r>  -10.1160    1.0000 </r>
       <r>  -10.0478    1.0000 </r>
       <r>   -9.6407    1.0000 </r>
       <r>   -9.5387    1.0000 </r>
       <r>   -9.4429    1.0000 </r>
       <r>   -9.3718    1.0000 </r>
       <r>   -9.2060    1.0000 </r>
       <r>   -9.1524    1.0000 </r>
       <r>   -9.1254    1.0000 </r>
       <r>   -9.0667    1.0000 </r>
       <r>   -9.0481    1.0000 </r>
       <r>   -8.8315    1.0000 </r>
       <r>   -8.7269    1.0000 </r>
       <r>   -8.5165    1.0000 </r>
       <r>   -8.4784    1.0000 </r>
       <r>   -8.4340    1.0000 </r>
       <r>   -8.2211    1.0000 </r>
       <r>   -7.8372    1.0000 </r>
       <r>   -7.8001    1.0000 </r>
       <r>   -7.7077    1.0000 </r>
       <r>   -7.6551    1.0000 </r>
       <r>   -7.4967    1.0000 </r>
       <r>   -7.3700    1.0000 </r>
       <r>   -7.3282    1.0000 </r>
       <r>   -7.2781    1.0000 </r>
       <r>   -7.1919    1.0000 </r>
       <r>   -7.1541    1.0000 </r>
       <r>   -7.1380    1.0000 </r>
       <r>   -7.0886    1.0000 </r>
       <r>   -7.0198    1.0000 </r>
       <r>   -6.8855    1.0000 </r>
       <r>   -6.6326    1.0000 </r>
       <r>   -6.5025    1.0000 </r>
       <r>   -6.4734    1.0000 </r>
       <r>   -6.3834    1.0000 </r>
       <r>   -6.3472    1.0000 </r>
       <r>   -6.2295    1.0000 </r>
       <r>   -6.1500    1.0000 </r>
       <r>   -6.1056    1.0000 </r>
       <r>   -6.0850    1.0000 </r>
       <r>   -5.9020    1.0000 </r>
       <r>   -5.4524    1.0000 </r>
       <r>   -3.9786    0.0000 </r>
       <r>   -3.8949    0.0000 </r>
       <r>   -3.5120    0.0000 </r>
       <r>   -3.1477    0.0000 </r>
       <r>   -2.9848    0.0000 </r>
       <r>   -2.6319    0.0000 </r>
       <r>   -2.5033    0.0000 </r>
       <r>   -2.4185    0.0000 </r>
       <r>   -1.2841    0.0000 </r>
       <r>   -1.1812    0.0000 </r>
       <r>   -1.1086    0.0000 </r>
       <r>   -0.7759    0.0000 </r>
       <r>   -0.7184    0.0000 </r>
       <r>   -0.5814    0.0000 </r>
       <r>   -0.4952    0.0000 </r>
       <r>   -0.0962    0.0000 </r>
       <r>    0.0585    0.0000 </r>
       <r>    0.3416    0.0000 </r>
       <r>    0.4281    0.0000 </r>
       <r>    0.5765    0.0000 </r>
       <r>    0.7434    0.0000 </r>
       <r>    0.7587    0.0000 </r>
       <r>    0.8296    0.0000 </r>
       <r>    0.9944    0.0000 </r>
       <r>    1.1399    0.0000 </r>
       <r>    1.2269    0.0000 </r>
       <r>    1.2606    0.0000 </r>
       <r>    1.4114    0.0000 </r>
       <r>    1.4869    0.0000 </r>
       <r>    1.6415    0.0000 </r>
       <r>    1.7307    0.0000 </r>
       <r>    1.8445    0.0000 </r>
       <r>    1.9262    0.0000 </r>
       <r>    1.9581    0.0000 </r>
       <r>    2.0358    0.0000 </r>
       <r>    2.0730    0.0000 </r>
       <r>    2.0882    0.0000 </r>
       <r>    2.1396    0.0000 </r>
       <r>    2.1421    0.0000 </r>
       <r>    2.2139    0.0000 </r>
       <r>    2.2487    0.0000 </r>
       <r>    2.2707    0.0000 </r>
       <r>    2.2943    0.0000 </r>
      </set>
      <set comment="kpoint 4">
       <r>  -27.6371    1.0000 </r>
       <r>  -27.5431    1.0000 </r>
       <r>  -27.4680    1.0000 </r>
       <r>  -27.2735    1.0000 </r>
       <r>  -27.1917    1.0000 </r>
       <r>  -27.1713    1.0000 </r>
       <r>  -26.2488    1.0000 </r>
       <r>  -26.0586    1.0000 </r>
       <r>  -25.6196    1.0000 </r>
       <r>  -25.4938    1.0000 </r>
       <r>  -25.4241    1.0000 </r>
       <r>  -25.3571    1.0000 </r>
       <r>  -25.3173    1.0000 </r>
       <r>  -25.1879    1.0000 </r>
       <r>  -25.1353    1.0000 </r>
       <r>  -25.1006    1.0000 </r>
       <r>  -24.8909    1.0000 </r>
       <r>  -23.7346    1.0000 </r>
       <r>  -23.5619    1.0000 </r>
       <r>  -23.2524    1.0000 </r>
       <r>  -23.0250    1.0000 </r>
       <r>  -22.9083    1.0000 </r>
       <r>  -22.8553    1.0000 </r>
       <r>  -22.6644    1.0000 </r>
       <r>  -20.6400    1.0000 </r>
       <r>  -20.4819    1.0000 </r>
       <r>  -20.2048    1.0000 </r>
       <r>  -18.8860    1.0000 </r>
       <r>  -18.6945    1.0000 </r>
       <r>  -17.9561    1.0000 </r>
       <r>  -17.6780    1.0000 </r>
       <r>  -17.5896    1.0000 </r>
       <r>  -17.2827    1.0000 </r>
       <r>  -17.1497    1.0000 </r>
       <r>  -17.0283    1.0000 </r>
       <r>  -15.8934    1.0000 </r>
       <r>  -15.7231    1.0000 </r>
       <r>  -15.5009    1.0000 </r>
       <r>  -15.3120    1.0000 </r>
       <r>  -15.1046    1.0000 </r>
       <r>  -14.9758    1.0000 </r>
       <r>  -14.9360    1.0000 </r>
       <r>  -14.8572    1.0000 </r>
       <r>  -14.7894    1.0000 </r>
       <r>  -14.4711    1.0000 </r>
       <r>  -14.3690    1.0000 </r>
       <r>  -14.0452    1.0000 </r>
       <r>  -13.9449    1.0000 </r>
       <r>  -13.8841    1.0000 </r>
       <r>  -13.8061    1.0000 </r>
       <r>  -13.6631    1.0000 </r>
       <r>  -13.5206    1.0000 </r>
       <r>  -13.2348    1.0000 </r>
       <r>  -13.0448    1.0000 </r>
       <r>  -12.9084    1.0000 </r>
       <r>  -12.2216    1.0000 </r>
       <r>  -11.9922    1.0000 </r>
       <r>  -11.8021    1.0000 </r>
       <r>  -11.7034    1.0000 </r>
       <r>  -11.5712    1.0000 </r>
       <r>  -11.1693    1.0000 </r>
       <r>  -11.1309    1.0000 </r>
       <r>  -11.0849    1.0000 </r>
       <r>  -11.0557    1.0000 </r>
       <r>  -10.9983    1.0000 </r>
       <r>  -10.9148    1.0000 </r>
       <r>  -10.8461    1.0000 </r>
       <r>  -10.6893    1.0000 </r>
       <r>  -10.5815    1.0000 </r>
       <r>  -10.4894    1.0000 </r>
       <r>  -10.4396    1.0000 </r>
       <r>  -10.4133    1.0000 </r>
       <r>  -10.3340    1.0000 </r>
       <r>  -10.2284    1.0000 </r>
       <r>  -10.1628    1.0000 </r>
       <r>  -10.1164    1.0000 </r>
       <r>  -10.0499    1.0000 </r>
       <r>   -9.6393    1.0000 </r>
       <r>   -9.5342    1.0000 </r>
       <r>   -9.4422    1.0000 </r>
       <r>   -9.3718    1.0000 </r>
       <r>   -9.2065    1.0000 </r>
       <r>   -9.1512    1.0000 </r>
       <r>   -9.1253    1.0000 </r>
       <r>   -9.0670    1.0000 </r>
       <r>   -9.0483    1.0000 </r>
       <r>   -8.8320    1.0000 </r>
       <r>   -8.7312    1.0000 </r>
       <r>   -8.5173    1.0000 </r>
       <r>   -8.4790    1.0000 </r>
       <r>   -8.4322    1.0000 </r>
       <r>   -8.2206    1.0000 </r>
       <r>   -7.8379    1.0000 </r>
       <r>   -7.7996    1.0000 </r>
       <r>   -7.7078    1.0000 </r>
       <r>   -7.6551    1.0000 </r>
       <r>   -7.4975    1.0000 </r>
       <r>   -7.3688    1.0000 </r>
       <r>   -7.3284    1.0000 </r>
       <r>   -7.2781    1.0000 </r>
       <r>   -7.1906    1.0000 </r>
       <r>   -7.1542    1.0000 </r>
       <r>   -7.1383    1.0000 </r>
       <r>   -7.0874    1.0000 </r>
       <r>   -7.0200    1.0000 </r>
       <r>   -6.8864    1.0000 </r>
       <r>   -6.6322    1.0000 </r>
       <r>   -6.5026    1.0000 </r>
       <r>   -6.4727    1.0000 </r>
       <r>   -6.3853    1.0000 </r>
       <r>   -6.3449    1.0000 </r>
       <r>   -6.2302    1.0000 </r>
       <r>   -6.1504    1.0000 </r>
       <r>   -6.1055    1.0000 </r>
       <r>   -6.0854    1.0000 </r>
       <r>   -5.9021    1.0000 </r>
       <r>   -5.4524    1.0000 </r>
       <r>   -3.9752    0.0000 </r>
       <r>   -3.8943    0.0000 </r>
       <r>   -3.5122    0.0000 </r>
       <r>   -3.1529    0.0000 </r>
       <r>   -2.9991    0.0000 </r>
       <r>   -2.6253    0.0000 </r>
       <r>   -2.5023    0.0000 </r>
       <r>   -2.4044    0.0000 </r>
       <r>   -1.2922    0.0000 </r>
       <r>   -1.1783    0.0000 </r>
       <r>   -1.1063    0.0000 </r>
       <r>   -0.7762    0.0000 </r>
       <r>   -0.7232    0.0000 </r>
       <r>   -0.5828    0.0000 </r>
       <r>   -0.4938    0.0000 </r>
       <r>   -0.0971    0.0000 </r>
       <r>    0.0583    0.0000 </r>
       <r>    0.3404    0.0000 </r>
       <r>    0.4233    0.0000 </r>
       <r>    0.5740    0.0000 </r>
       <r>    0.7451    0.0000 </r>
       <r>    0.7691    0.0000 </r>
       <r>    0.8329    0.0000 </r>
       <r>    0.9921    0.0000 </r>
       <r>    1.1485    0.0000 </r>
       <r>    1.2174    0.0000 </r>
       <r>    1.2634    0.0000 </r>
       <r>    1.4106    0.0000 </r>
       <r>    1.4952    0.0000 </r>
       <r>    1.6496    0.0000 </r>
       <r>    1.7332    0.0000 </r>
       <r>    1.8497    0.0000 </r>
       <r>    1.9022    0.0000 </r>
       <r>    1.9492    0.0000 </r>
       <r>    2.0424    0.0000 </r>
       <r>    2.0578    0.0000 </r>
       <r>    2.0895    0.0000 </r>
       <r>    2.1216    0.0000 </r>
       <r>    2.1536    0.0000 </r>
       <r>    2.2096    0.0000 </r>
       <r>    2.2493    0.0000 </r>
       <r>    2.3004    0.0000 </r>
       <r>    2.3377    0.0000 </r>
      </set>
      <set comment="kpoint 5">
       <r>  -27.6371    1.0000 </r>
       <r>  -27.5431    1.0000 </r>
       <r>  -27.4680    1.0000 </r>
       <r>  -27.2735    1.0000 </r>
       <r>  -27.1917    1.0000 </r>
       <r>  -27.1713    1.0000 </r>
       <r>  -26.2487    1.0000 </r>
       <r>  -26.0590    1.0000 </r>
       <r>  -25.6196    1.0000 </r>
       <r>  -25.4932    1.0000 </r>
       <r>  -25.4236    1.0000 </r>
       <r>  -25.3571    1.0000 </r>
       <r>  -25.3179    1.0000 </r>
       <r>  -25.1879    1.0000 </r>
       <r>  -25.1357    1.0000 </r>
       <r>  -25.1006    1.0000 </r>
       <r>  -24.8913    1.0000 </r>
       <r>  -23.7335    1.0000 </r>
       <r>  -23.5625    1.0000 </r>
       <r>  -23.2524    1.0000 </r>
       <r>  -23.0257    1.0000 </r>
       <r>  -22.9093    1.0000 </r>
       <r>  -22.8531    1.0000 </r>
       <r>  -22.6650    1.0000 </r>
       <r>  -20.6396    1.0000 </r>
       <r>  -20.4833    1.0000 </r>
       <r>  -20.2049    1.0000 </r>
       <r>  -18.8807    1.0000 </r>
       <r>  -18.6904    1.0000 </r>
       <r>  -17.9663    1.0000 </r>
       <r>  -17.6829    1.0000 </r>
       <r>  -17.6070    1.0000 </r>
       <r>  -17.2824    1.0000 </r>
       <r>  -17.1298    1.0000 </r>
       <r>  -17.0161    1.0000 </r>
       <r>  -15.9015    1.0000 </r>
       <r>  -15.7240    1.0000 </r>
       <r>  -15.5021    1.0000 </r>
       <r>  -15.3089    1.0000 </r>
       <r>  -15.1051    1.0000 </r>
       <r>  -14.9805    1.0000 </r>
       <r>  -14.9357    1.0000 </r>
       <r>  -14.8586    1.0000 </r>
       <r>  -14.7798    1.0000 </r>
       <r>  -14.4692    1.0000 </r>
       <r>  -14.3736    1.0000 </r>
       <r>  -14.0578    1.0000 </r>
       <r>  -13.9385    1.0000 </r>
       <r>  -13.8854    1.0000 </r>
       <r>  -13.8108    1.0000 </r>
       <r>  -13.6608    1.0000 </r>
       <r>  -13.5131    1.0000 </r>
       <r>  -13.2507    1.0000 </r>
       <r>  -13.0245    1.0000 </r>
       <r>  -12.9056    1.0000 </r>
       <r>  -12.2238    1.0000 </r>
       <r>  -11.9943    1.0000 </r>
       <r>  -11.8046    1.0000 </r>
       <r>  -11.7061    1.0000 </r>
       <r>  -11.5673    1.0000 </r>
       <r>  -11.1716    1.0000 </r>
       <r>  -11.1309    1.0000 </r>
       <r>  -11.0843    1.0000 </r>
       <r>  -11.0556    1.0000 </r>
       <r>  -10.9971    1.0000 </r>
       <r>  -10.9165    1.0000 </r>
       <r>  -10.8449    1.0000 </r>
       <r>  -10.6886    1.0000 </r>
       <r>  -10.5821    1.0000 </r>
       <r>  -10.4895    1.0000 </r>
       <r>  -10.4396    1.0000 </r>
       <r>  -10.4134    1.0000 </r>
       <r>  -10.3354    1.0000 </r>
       <r>  -10.2287    1.0000 </r>
       <r>  -10.1623    1.0000 </r>
       <r>  -10.1170    1.0000 </r>
       <r>  -10.0527    1.0000 </r>
       <r>   -9.6376    1.0000 </r>
       <r>   -9.5280    1.0000 </r>
       <r>   -9.4411    1.0000 </r>
       <r>   -9.3718    1.0000 </r>
       <r>   -9.2073    1.0000 </r>
       <r>   -9.1497    1.0000 </r>
       <r>   -9.1252    1.0000 </r>
       <r>   -9.0673    1.0000 </r>
       <r>   -9.0485    1.0000 </r>
       <r>   -8.8329    1.0000 </r>
       <r>   -8.7371    1.0000 </r>
       <r>   -8.5185    1.0000 </r>
       <r>   -8.4797    1.0000 </r>
       <r>   -8.4300    1.0000 </r>
       <r>   -8.2198    1.0000 </r>
       <r>   -7.8389    1.0000 </r>
       <r>   -7.7989    1.0000 </r>
       <r>   -7.7081    1.0000 </r>
       <r>   -7.6550    1.0000 </r>
       <r>   -7.4986    1.0000 </r>
       <r>   -7.3674    1.0000 </r>
       <r>   -7.3286    1.0000 </r>
       <r>   -7.2781    1.0000 </r>
       <r>   -7.1888    1.0000 </r>
       <r>   -7.1544    1.0000 </r>
       <r>   -7.1388    1.0000 </r>
       <r>   -7.0859    1.0000 </r>
       <r>   -7.0203    1.0000 </r>
       <r>   -6.8876    1.0000 </r>
       <r>   -6.6316    1.0000 </r>
       <r>   -6.5027    1.0000 </r>
       <r>   -6.4716    1.0000 </r>
       <r>   -6.3877    1.0000 </r>
       <r>   -6.3420    1.0000 </r>
       <r>   -6.2311    1.0000 </r>
       <r>   -6.1509    1.0000 </r>
       <r>   -6.1054    1.0000 </r>
       <r>   -6.0861    1.0000 </r>
       <r>   -5.9022    1.0000 </r>
       <r>   -5.4524    1.0000 </r>
       <r>   -3.9705    0.0000 </r>
       <r>   -3.8935    0.0000 </r>
       <r>   -3.5124    0.0000 </r>
       <r>   -3.1606    0.0000 </r>
       <r>   -3.0162    0.0000 </r>
       <r>   -2.6180    0.0000 </r>
       <r>   -2.5013    0.0000 </r>
       <r>   -2.3850    0.0000 </r>
       <r>   -1.3027    0.0000 </r>
       <r>   -1.1750    0.0000 </r>
       <r>   -1.1031    0.0000 </r>
       <r>   -0.7766    0.0000 </r>
       <r>   -0.7297    0.0000 </r>
       <r>   -0.5846    0.0000 </r>
       <r>   -0.4919    0.0000 </r>
       <r>   -0.0984    0.0000 </r>
       <r>    0.0580    0.0000 </r>
       <r>    0.3386    0.0000 </r>
       <r>    0.4168    0.0000 </r>
       <r>    0.5710    0.0000 </r>
       <r>    0.7481    0.0000 </r>
       <r>    0.7824    0.0000 </r>
       <r>    0.8361    0.0000 </r>
       <r>    0.9919    0.0000 </r>
       <r>    1.1554    0.0000 </r>
       <r>    1.2076    0.0000 </r>
       <r>    1.2679    0.0000 </r>
       <r>    1.4098    0.0000 </r>
       <r>    1.5058    0.0000 </r>
       <r>    1.6589    0.0000 </r>
       <r>    1.7388    0.0000 </r>
       <r>    1.8511    0.0000 </r>
       <r>    1.8775    0.0000 </r>
       <r>    1.9377    0.0000 </r>
       <r>    2.0380    0.0000 </r>
       <r>    2.0482    0.0000 </r>
       <r>    2.0832    0.0000 </r>
       <r>    2.1136    0.0000 </r>
       <r>    2.1568    0.0000 </r>
       <r>    2.2023    0.0000 </r>
       <r>    2.2486    0.0000 </r>
       <r>    2.3068    0.0000 </r>
       <r>    2.3449    0.0000 </r>
      </set>
      <set comment="kpoint 6">
       <r>  -27.6370    1.0000 </r>
       <r>  -27.5431    1.0000 </r>
       <r>  -27.4680    1.0000 </r>
       <r>  -27.2735    1.0000 </r>
       <r>  -27.1917    1.0000 </r>
       <r>  -27.1713    1.0000 </r>
       <r>  -26.2484    1.0000 </r>
       <r>  -26.0595    1.0000 </r>
       <r>  -25.6196    1.0000 </r>
       <r>  -25.4925    1.0000 </r>
       <r>  -25.4229    1.0000 </r>
       <r>  -25.3571    1.0000 </r>
       <r>  -25.3186    1.0000 </r>
       <r>  -25.1878    1.0000 </r>
       <r>  -25.1360    1.0000 </r>
       <r>  -25.1006    1.0000 </r>
       <r>  -24.8918    1.0000 </r>
       <r>  -23.7321    1.0000 </r>
       <r>  -23.5632    1.0000 </r>
       <r>  -23.2525    1.0000 </r>
       <r>  -23.0266    1.0000 </r>
       <r>  -22.9105    1.0000 </r>
[...]
       <r>    1.2351    0.0000 </r>
       <r>    1.2597    0.0000 </r>
       <r>    1.4121    0.0000 </r>
       <r>    1.4798    0.0000 </r>
       <r>    1.6340    0.0000 </r>
       <r>    1.7300    0.0000 </r>
       <r>    1.8382    0.0000 </r>
       <r>    1.9486    0.0000 </r>
       <r>    1.9730    0.0000 </r>
       <r>    2.0232    0.0000 </r>
       <r>    2.0775    0.0000 </r>
       <r>    2.0985    0.0000 </r>
       <r>    2.1237    0.0000 </r>
       <r>    2.1830    0.0000 </r>
       <r>    2.2173    0.0000 </r>
       <r>    2.2373    0.0000 </r>
       <r>    2.2653    0.0000 </r>
       <r>    2.2898    0.0000 </r>
      </set>
     </set>
    </set>
   </array>
  </eigenvalues>
  <separator name="orbital magnetization" >
   <v name="MAGDIPOLOUT">      0.00000000      0.00000000      0.00000000</v>
  </separator>
  <dos>
   <i name="efermi">     -5.39092512 </i>
   <total>
    <array>
     <dimension dim="1">gridpoints</dimension>
     <dimension dim="2">spin</dimension>
     <field>energy</field>
     <field>total</field>
     <field>integrated</field>
     <set>
      <set comment="spin 1">
       <r>   -29.1417     0.0000     0.0000 </r>
       <r>   -29.0314     0.0000     0.0000 </r>
       <r>   -28.9210     0.0000     0.0000 </r>
       <r>   -28.8107     0.0000     0.0000 </r>
       <r>   -28.7003     0.0000     0.0000 </r>
       <r>   -28.5900     0.0000     0.0000 </r>
       <r>   -28.4797     0.0000     0.0000 </r>
       <r>   -28.3693     0.0000     0.0000 </r>
       <r>   -28.2590     0.0000     0.0000 </r>
       <r>   -28.1486     0.0000     0.0000 </r>
       <r>   -28.0383     0.0000     0.0000 </r>
       <r>   -27.9280     0.0000     0.0000 </r>
       <r>   -27.8176     0.0000     0.0000 </r>
       <r>   -27.7073     0.0000     0.0000 </r>
       <r>   -27.5969    18.1257     2.0000 </r>
       <r>   -27.4866    18.2069     4.0090 </r>
       <r>   -27.3763     0.0000     6.0000 </r>
       <r>   -27.2659    15.5641     7.7173 </r>
       <r>   -27.1556    36.0158    11.9740 </r>
       <r>   -27.0452     0.0000    12.0000 </r>
       <r>   -26.9349     0.0000    12.0000 </r>
       <r>   -26.8246     0.0000    12.0000 </r>
       <r>   -26.7142     0.0000    12.0000 </r>
       <r>   -26.6039     0.0000    12.0000 </r>
       <r>   -26.4935     0.0000    12.0000 </r>
       <r>   -26.3832     0.0000    12.0000 </r>
       <r>   -26.2728     0.0016    12.0002 </r>
       <r>   -26.1625     0.0000    14.0000 </r>
       <r>   -26.0522    17.3027    15.9092 </r>
       <r>   -25.9418     0.0000    16.0000 </r>
       <r>   -25.8315     0.0000    16.0000 </r>
       <r>   -25.7211     0.0000    16.0000 </r>
       <r>   -25.6108    16.1404    17.7809 </r>
       <r>   -25.5005     0.9178    18.1013 </r>
       <r>   -25.3901    18.0569    21.9924 </r>
       <r>   -25.2798    33.9730    25.9986 </r>
       <r>   -25.1694    17.9783    27.9837 </r>
       <r>   -25.0591    21.7509    32.0000 </r>
       <r>   -24.9488     0.0000    32.0000 </r>
       <r>   -24.8384    18.1257    34.0000 </r>
       <r>   -24.7281     0.0000    34.0000 </r>
       <r>   -24.6177     0.0000    34.0000 </r>
       <r>   -24.5074     0.0000    34.0000 </r>
       <r>   -24.3971     0.0000    34.0000 </r>
       <r>   -24.2867     0.0000    34.0000 </r>
       <r>   -24.1764     0.0000    34.0000 </r>
       <r>   -24.0660     0.0000    34.0000 </r>
       <r>   -23.9557     0.0000    34.0000 </r>
       <r>   -23.8454     0.0000    34.0000 </r>
       <r>   -23.7350     0.9160    34.1011 </r>
       <r>   -23.6247     7.8545    36.0000 </r>
       <r>   -23.5143    18.1157    37.9989 </r>
       <r>   -23.4040     0.0000    38.0000 </r>
       <r>   -23.2937    10.5815    39.1676 </r>
       <r>   -23.1833     4.9846    40.0000 </r>
       <r>   -23.0730     0.0000    40.0000 </r>
       <r>   -22.9626    18.1257    42.0000 </r>
       <r>   -22.8523    21.5350    44.3762 </r>
       <r>   -22.7420     9.0628    46.0000 </r>
       <r>   -22.6316    18.1257    48.0000 </r>
       <r>   -22.5213     0.0000    48.0000 </r>
       <r>   -22.4109     0.0000    48.0000 </r>
       <r>   -22.3006     0.0000    48.0000 </r>
       <r>   -22.1903     0.0000    48.0000 </r>
       <r>   -22.0799     0.0000    48.0000 </r>
       <r>   -21.9696     0.0000    48.0000 </r>
       <r>   -21.8592     0.0000    48.0000 </r>
       <r>   -21.7489     0.0000    48.0000 </r>
       <r>   -21.6386     0.0000    48.0000 </r>
       <r>   -21.5282     0.0000    48.0000 </r>
       <r>   -21.4179     0.0000    48.0000 </r>
       <r>   -21.3075     0.0000    48.0000 </r>
       <r>   -21.1972     0.0000    48.0000 </r>
       <r>   -21.0868     0.0000    48.0000 </r>
       <r>   -20.9765     0.0000    48.0000 </r>
       <r>   -20.8662     0.0000    48.0000 </r>
       <r>   -20.7558     0.0000    48.0000 </r>
       <r>   -20.6455     0.7587    48.0837 </r>
       <r>   -20.5351     0.0012    50.0001 </r>
       <r>   -20.4248     9.9691    52.0000 </r>
       <r>   -20.3145     0.0000    52.0000 </r>
       <r>   -20.2041    16.1409    53.7810 </r>
       <r>   -20.0938     0.0000    54.0000 </r>
       <r>   -19.9834     0.0000    54.0000 </r>
       <r>   -19.8731     0.0000    54.0000 </r>
       <r>   -19.7628     0.0000    54.0000 </r>
       <r>   -19.6524     0.0000    54.0000 </r>
       <r>   -19.5421     0.0000    54.0000 </r>
       <r>   -19.4317     0.0000    54.0000 </r>
       <r>   -19.3214     0.0000    54.0000 </r>
       <r>   -19.2111     0.0000    54.0000 </r>
       <r>   -19.1007     0.0000    54.0000 </r>
       <r>   -18.9904     0.0000    54.0000 </r>
       <r>   -18.8800     1.2000    54.1324 </r>
       <r>   -18.7697     8.2980    55.1489 </r>
       <r>   -18.6594     6.8848    56.3597 </r>
       <r>   -18.5490     2.9375    56.7575 </r>
       <r>   -18.4387     3.5947    57.3800 </r>
       <r>   -18.3283     9.1390    58.4751 </r>
       <r>   -18.2180     4.5055    59.4805 </r>
       <r>   -18.1077     0.8790    59.6137 </r>
       <r>   -17.9973     1.0439    59.7652 </r>
       <r>   -17.8870     1.5105    60.0000 </r>
       <r>   -17.7766    13.3106    61.4687 </r>
       <r>   -17.6663    17.0663    63.5164 </r>
       <r>   -17.5560     4.1418    64.1570 </r>
       <r>   -17.4456     4.2717    64.7380 </r>
       <r>   -17.3353     2.4547    65.4709 </r>
       <r>   -17.2249     4.0783    66.0000 </r>
       <r>   -17.1146     1.3490    66.1489 </r>
       <r>   -17.0043     5.4903    66.8058 </r>
       <r>   -16.8939    10.4468    68.2694 </r>
       <r>   -16.7836     0.7020    68.3608 </r>
       <r>   -16.6732     0.5692    68.4628 </r>
       <r>   -16.5629     1.4164    68.7396 </r>
       <r>   -16.4526     3.1927    69.1356 </r>
       <r>   -16.3422     3.3739    69.7556 </r>
       <r>   -16.2319     1.3887    70.0032 </r>
       <r>   -16.1215     6.2251    70.9369 </r>
       <r>   -16.0112     4.0590    71.5812 </r>
       <r>   -15.9009     1.6428    71.7979 </r>
       <r>   -15.7905    11.7137    73.2925 </r>
       <r>   -15.6802     5.4377    74.0000 </r>
       <r>   -15.5698     0.0000    74.0000 </r>
       <r>   -15.4595    18.1257    76.0000 </r>
       <r>   -15.3491     0.0000    76.0000 </r>
       <r>   -15.2388    13.0832    77.4436 </r>
       <r>   -15.1285     8.4882    78.9366 </r>
       <r>   -15.0181     9.9555    81.0985 </r>
       <r>   -14.9078    20.5439    84.0002 </r>
       <r>   -14.7974     8.9920    86.0755 </r>
       <r>   -14.6871     1.9897    86.4362 </r>
       <r>   -14.5768    11.9451    88.0014 </r>
       <r>   -14.4664    11.4464    89.8297 </r>
       <r>   -14.3561    13.6750    91.5589 </r>
       <r>   -14.2457     9.9266    93.2620 </r>
       <r>   -14.1354     1.1992    93.7323 </r>
       <r>   -14.0251     1.7222    93.9734 </r>
       <r>   -13.9147    17.0029    95.8761 </r>
       <r>   -13.8044    19.1606    98.3975 </r>
       <r>   -13.6940    10.2124    99.7268 </r>
       <r>   -13.5837    13.4433   102.0000 </r>
       <r>   -13.4734    11.8259   103.5049 </r>
       <r>   -13.3630     1.8928   103.7922 </r>
       <r>   -13.2527     3.5737   104.3610 </r>
       <r>   -13.1423     9.8191   105.6501 </r>
       <r>   -13.0320     6.1324   106.5100 </r>
       <r>   -12.9217     9.9578   107.9321 </r>
       <r>   -12.8113     1.0659   108.4343 </r>
       <r>   -12.7010     2.1258   108.7179 </r>
       <r>   -12.5906     6.2596   109.5574 </r>
       <r>   -12.4803     4.8254   110.5324 </r>
       <r>   -12.3700     4.0551   111.2641 </r>
       <r>   -12.2596     3.2372   111.6905 </r>
       <r>   -12.1493     1.5105   112.0000 </r>
       <r>   -12.0389     8.9567   112.9883 </r>
       <r>   -11.9286     4.0783   114.0000 </r>
       <r>   -11.8183    16.0319   115.7690 </r>
       <r>   -11.7079     9.8580   117.3211 </r>
       <r>   -11.5976     3.8853   118.0287 </r>
       <r>   -11.4872    10.9752   119.7110 </r>
       <r>   -11.3769     0.0000   120.0000 </r>
       <r>   -11.2666     0.0000   120.0000 </r>
       <r>   -11.1562    17.9753   121.9834 </r>
       <r>   -11.0459    40.6451   127.1515 </r>
       <r>   -10.9355    22.4088   130.6059 </r>
       <r>   -10.8252    15.0900   133.3484 </r>
       <r>   -10.7149     0.0005   134.0001 </r>
       <r>   -10.6045    18.8460   136.6295 </r>
       <r>   -10.4942     1.5880   138.1752 </r>
       <r>   -10.3838    38.6169   143.5610 </r>
       <r>   -10.2735     9.5160   146.0000 </r>
       <r>   -10.1631    31.5000   149.4757 </r>
       <r>   -10.0528    23.3753   153.8626 </r>
       <r>    -9.9425     0.0000   154.0000 </r>
       <r>    -9.8321     0.0000   154.0000 </r>
       <r>    -9.7218     0.0000   154.0000 </r>
       <r>    -9.6114    17.9730   155.9831 </r>
       <r>    -9.5011    11.0092   157.2148 </r>
       <r>    -9.3908     8.5601   158.7445 </r>
       <r>    -9.2804     8.1341   160.9475 </r>
       <r>    -9.1701    18.1650   164.0043 </r>
       <r>    -9.0597    44.6670   169.8952 </r>
       <r>    -8.9494     1.1621   172.1282 </r>
       <r>    -8.8391     7.1773   173.7586 </r>
       <r>    -8.7287     5.5148   175.9085 </r>
       <r>    -8.6184     0.0000   176.0000 </r>
       <r>    -8.5080    17.9040   177.9755 </r>
       <r>    -8.3977    20.6326   181.8766 </r>
       <r>    -8.2874     0.0000   182.0000 </r>
       <r>    -8.1770    18.1257   184.0000 </r>
       <r>    -8.0667     0.0000   184.0000 </r>
       <r>    -7.9563     0.0000   184.0000 </r>
       <r>    -7.8460    11.7972   185.3017 </r>
       <r>    -7.7357    18.1274   188.0002 </r>
       <r>    -7.6253    30.1229   191.9904 </r>
       <r>    -7.5150     9.0246   192.9958 </r>
       <r>    -7.4046     0.0017   194.0002 </r>
       <r>    -7.2943    31.5653   198.0163 </r>
       <r>    -7.1840     1.9295   200.2129 </r>
       <r>    -7.0736    43.9900   207.2705 </r>
       <r>    -6.9633    18.1257   210.0000 </r>
       <r>    -6.8529    18.1257   212.0000 </r>
       <r>    -6.7426     0.0000   212.0000 </r>
       <r>    -6.6323    12.0836   213.3333 </r>
       <r>    -6.5219     2.4363   214.2688 </r>
       <r>    -6.4116    29.0917   219.0767 </r>
       <r>    -6.3012    18.1070   221.7979 </r>
       <r>    -6.1909    17.0511   223.8814 </r>
       <r>    -6.0806    44.5847   229.8028 </r>
       <r>    -5.9702     0.0000   230.0000 </r>
       <r>    -5.8599    18.1257   232.0000 </r>
       <r>    -5.7495     0.0000   232.0000 </r>
       <r>    -5.6392     0.0000   232.0000 </r>
       <r>    -5.5289     0.0000   232.0000 </r>
       <r>    -5.4185    18.1257   234.0000 </r>
       <r>    -5.3082     0.0000   234.0000 </r>
       <r>    -5.1978     0.0000   234.0000 </r>
       <r>    -5.0875     0.0000   234.0000 </r>
       <r>    -4.9771     0.0000   234.0000 </r>
       <r>    -4.8668     0.0000   234.0000 </r>
       <r>    -4.7565     0.0000   234.0000 </r>
       <r>    -4.6461     0.0000   234.0000 </r>
       <r>    -4.5358     0.0000   234.0000 </r>
       <r>    -4.4254     0.0000   234.0000 </r>
       <r>    -4.3151     0.0000   234.0000 </r>
       <r>    -4.2048     0.0000   234.0000 </r>
       <r>    -4.0944     0.0000   234.0000 </r>
       <r>    -3.9841     0.4036   234.0445 </r>
       <r>    -3.8737    12.7793   236.3101 </r>
       <r>    -3.7634     3.1145   236.7937 </r>
       <r>    -3.6531    10.1202   238.0000 </r>
       <r>    -3.5427    10.0168   239.1053 </r>
       <r>    -3.4324     8.6484   240.7876 </r>
       <r>    -3.3220     3.0050   241.5982 </r>
       <r>    -3.2117     0.8086   241.7392 </r>
       <r>    -3.1014    16.2965   243.5982 </r>
       <r>    -2.9910     1.4442   243.9094 </r>
       <r>    -2.8807     0.0000   244.0000 </r>
       <r>    -2.7703     0.0000   244.0000 </r>
       <r>    -2.6600     5.2065   244.5745 </r>
       <r>    -2.5497     6.8390   245.6546 </r>
       <r>    -2.4393     5.9579   246.6574 </r>
       <r>    -2.3290    10.0562   248.2596 </r>
       <r>    -2.2186     0.5998   248.3662 </r>
       <r>    -2.1083     0.5650   248.4623 </r>
       <r>    -1.9980     3.0754   248.8227 </r>
       <r>    -1.8876     7.2578   249.8175 </r>
       <r>    -1.7773     2.7791   250.3067 </r>
       <r>    -1.6669     2.2427   250.5808 </r>
       <r>    -1.5566     2.9527   251.0091 </r>
       <r>    -1.4463     2.5755   251.4842 </r>
       <r>    -1.3359     1.0154   251.8120 </r>
       <r>    -1.2256     1.7441   252.0591 </r>
       <r>    -1.1152    15.9102   254.0222 </r>
       <r>    -1.0049    11.8670   255.5261 </r>
       <r>    -0.8946     0.9037   256.0997 </r>
       <r>    -0.7842    10.6113   257.4709 </r>
       <r>    -0.6739     5.8909   260.0000 </r>
       <r>    -0.5635    18.1049   261.9977 </r>
       <r>    -0.4532    16.0271   263.7684 </r>
       <r>    -0.3429     0.0000   264.0000 </r>
       <r>    -0.2325     0.0000   264.0000 </r>
       <r>    -0.1222     0.3131   264.0345 </r>
       <r>    -0.0118     3.4741   266.0000 </r>
       <r>     0.0985    18.1056   267.9978 </r>
       <r>     0.2089     8.9261   268.9849 </r>
       <r>     0.3192     3.3894   269.7407 </r>
       <r>     0.4295    15.4598   271.9225 </r>
       <r>     0.5399     4.6520   272.5133 </r>
       <r>     0.6502     5.8909   274.0000 </r>
       <r>     0.7606     9.1358   275.0080 </r>
       <r>     0.8709    23.0471   278.1764 </r>
       <r>     0.9812     6.2349   278.9546 </r>
       <r>     1.0916    12.5733   281.0707 </r>
       <r>     1.2019    16.6754   283.2733 </r>
       <r>     1.3123    16.2825   285.6133 </r>
       <r>     1.4226    12.7033   287.8017 </r>
       <r>     1.5329    28.5235   292.1806 </r>
       <r>     1.6433    15.2652   294.7844 </r>
       <r>     1.7536    19.0869   298.3061 </r>
       <r>     1.8640    13.1982   300.1563 </r>
       <r>     1.9743    22.6025   303.1440 </r>
       <r>     2.0846    29.3565   307.5225 </r>
       <r>     2.1950    27.2126   311.5193 </r>
       <r>     2.3053    29.3548   315.7390 </r>
       <r>     2.4157    15.2786   318.5692 </r>
       <r>     2.5260     4.0783   320.0000 </r>
       <r>     2.6363     0.0000   320.0000 </r>
       <r>     2.7467     0.0000   320.0000 </r>
       <r>     2.8570     0.0000   320.0000 </r>
       <r>     2.9674     0.0000   320.0000 </r>
       <r>     3.0777     0.0000   320.0000 </r>
       <r>     3.1880     0.0000   320.0000 </r>
       <r>     3.2984     0.0000   320.0000 </r>
       <r>     3.4087     0.0000   320.0000 </r>
       <r>     3.5191     0.0000   320.0000 </r>
       <r>     3.6294     0.0000   320.0000 </r>
       <r>     3.7397     0.0000   320.0000 </r>
       <r>     3.8501     0.0000   320.0000 </r>
       <r>     3.9604     0.0000   320.0000 </r>
      </set>
     </set>
    </array>
   </total>
  </dos>
 </calculation>
 <structure name="finalpos" >
  <crystal>
   <varray name="basis" >
    <v>      14.43883845       0.17160370       0.00000000 </v>
    <v>      -7.05191835      12.14376442       0.00000000 </v>
    <v>       0.00000000       0.00000000      20.00000000 </v>
   </varray>
   <i name="volume">   3531.03975940 </i>
   <varray name="rec_basis" >
    <v>       0.06878294       0.03994245       0.00000000 </v>
    <v>      -0.00097197       0.08178236       0.00000000 </v>
    <v>       0.00000000       0.00000000       0.05000000 </v>
   </varray>
  </crystal>
  <varray name="positions" >
   <v>       0.47977324       0.07219467       0.56720974 </v>
   <v>       0.56446058       0.29119933       0.51720625 </v>
   <v>       0.72733633       0.28817937       0.52259955 </v>
   <v>       0.72970953       0.45566902       0.50080784 </v>
   <v>       0.43988864       0.72474656       0.51792946 </v>
   <v>       0.27599356       0.72413451       0.52075072 </v>
   <v>       0.27810438       0.55725635       0.50214297 </v>
   <v>       0.94706346       0.56303839       0.50987549 </v>
   <v>       0.61525244       0.56584084       0.50404299 </v>
   <v>       0.05946786       0.44960966       0.51888976 </v>
   <v>       0.40186479       0.45940564       0.47556207 </v>
   <v>       0.52515927       0.94190991       0.48665881 </v>
   <v>       0.66041520       0.95119871       0.43337779 </v>
   <v>       0.10780143       0.76934577       0.58753759 </v>
   <v>       0.62549092       0.75420637       0.41301794 </v>
   <v>       0.37838611       0.07166665       0.63232262 </v>
   <v>       0.88597060       0.23753148       0.44581595 </v>
   <v>       0.27742249       0.30959408       0.44909692 </v>
   <v>       0.58327287       0.05040289       0.48240765 </v>
   <v>       0.66660361       0.09143823       0.42748909 </v>
   <v>       0.56033629       0.11788201       0.52381508 </v>
   <v>       0.62352692       0.39873595       0.50359010 </v>
   <v>       0.62124663       0.23977351       0.52142903 </v>
   <v>       0.77793666       0.39696567       0.51411203 </v>
   <v>       0.38424535       0.61690226       0.50595649 </v>
   <v>       0.38174042       0.77448821       0.52412672 </v>
   <v>       0.22801915       0.61542117       0.51115348 </v>
   <v>       0.05309911       0.61627789       0.50780131 </v>
   <v>       0.11017255       0.55829575       0.51169781 </v>
   <v>       0.10227094       0.73771398       0.49302498 </v>
   <v>       0.56236942       0.62122906       0.50185227 </v>
   <v>       0.44988557       0.56397866       0.49476681 </v>
   <v>       0.63084655       0.74426839       0.50995514 </v>
   <v>       0.42117181       0.96302812       0.57125365 </v>
   <v>       0.44312890       0.89618103       0.52920367 </v>
   <v>       0.33729865       0.92227016       0.62583440 </v>
   <v>       0.89596000       0.45393478       0.51609470 </v>
   <v>       0.95328533       0.39647720       0.52216117 </v>
   <v>       0.90627918       0.27632600       0.53976111 </v>
   <v>       0.56454219       0.45874801       0.49075306 </v>
   <v>       0.45771237       0.40786481       0.46775568 </v>
   <v>       0.40202979       0.30254097       0.42802776 </v>
   <v>       0.70169113       0.18170133       0.40211227 </v>
   <v>       0.69648781       0.01979894       0.40725409 </v>
   <v>       0.12067977       0.76986109       0.43564669 </v>
   <v>       0.11515145       0.80545221       0.54443260 </v>
   <v>       0.66708872       0.78812780       0.56281462 </v>
   <v>       0.65596350       0.80289895       0.45144072 </v>
   <v>       0.28710387       0.82705978       0.64354676 </v>
   <v>       0.32530949       0.00238554       0.65380656 </v>
   <v>       0.89794270       0.24857133       0.59787034 </v>
   <v>       0.88503361       0.20468059       0.48919284 </v>
   <v>       0.44953064       0.26468674       0.39781809 </v>
   <v>       0.29549871       0.25869117       0.42600151 </v>
  </varray>
 </structure>
</modeling>
