<?xml version="1.0" encoding="ISO-8859-1"?>
<modeling>
 <generator>
  <i name="program" type="string">vasp </i>
  <i name="version" type="string">5.4.4.18Apr17-6-g9f103f2a35  </i>
  <i name="subversion" type="string">(build Jun 07 2020 16:50:00) complex            parallel </i>
  <i name="platform" type="string">LinuxIFC </i>
  <i name="date" type="string">2023 02 14 </i>
  <i name="time" type="string">13:46:45 </i>
 </generator>
 <incar>
  <i type="string" name="SYSTEM">Simulation for cell shape cell volume r</i>
  <i type="int" name="ISTART">     1</i>
  <i type="string" name="PREC">high</i>
  <i type="string" name="ALGO">48</i>
  <i type="int" name="ICHARG">    11</i>
  <i type="int" name="NELM">   200</i>
  <i type="int" name="IBRION">    -1</i>
  <i name="EDIFF">      0.00001000</i>
  <i name="EDIFFG">     -0.01000000</i>
  <i type="int" name="NSW">     0</i>
  <i type="int" name="ISIF">     2</i>
  <i name="ENCUT">    500.00000000</i>
  <i name="POTIM">      0.30000000</i>
  <i type="string" name="LREAL">A</i>
  <i type="int" name="ISMEAR">     0</i>
  <i name="SIGMA">      0.01000000</i>
  <i type="int" name="NWRITE">     0</i>
  <i type="logical" name="LWAVE"> F  </i>
  <i type="logical" name="LCHARG"> F  </i>
  <v type="int" name="KPOINT_BSE">    -1     0     0     0</v>
  <i type="int" name="NELM">   200</i>
  <i type="string" name="GGA">PE</i>
 </incar>
 <structure name="primitive_cell" >
  <crystal>
   <varray name="basis" >
    <v>      21.70342484      -0.03998801       0.00000000 </v>
    <v>     -10.88632081      18.74655024       0.00000000 </v>
    <v>       0.00000000       0.00000000      20.00000000 </v>
   </varray>
   <i name="volume">   8128.58043721 </i>
   <varray name="rec_basis" >
    <v>       0.04612503       0.02678529       0.00000000 </v>
    <v>       0.00009839       0.05340028       0.00000000 </v>
    <v>       0.00000000       0.00000000       0.05000000 </v>
   </varray>
  </crystal>
  <varray name="positions" >
   <v>       0.35513477      -0.47016561      -0.45809839 </v>
   <v>       0.39372809      -0.41847504      -0.44898818 </v>
   <v>       0.36580979      -0.37343443      -0.44386776 </v>
   <v>       0.32432067       0.47403858       0.45451583 </v>
   <v>       0.46448042      -0.40031941      -0.45524678 </v>
   <v>       0.29389347      -0.40903743      -0.44411675 </v>
   <v>       0.38291635      -0.49897598       0.42617171 </v>
   <v>       0.47636183      -0.45858476      -0.48337294 </v>
   <v>       0.44095535       0.49695074       0.46176694 </v>
   <v>      -0.48406926      -0.34320942      -0.43880572 </v>
   <v>       0.40904288      -0.30293950      -0.44322066 </v>
   <v>       0.39826289      -0.46894585       0.37140484 </v>
   <v>       0.26680378      -0.36596420      -0.44570337 </v>
   <v>      -0.46658999      -0.46262838      -0.45536198 </v>
   <v>       0.46247177       0.45093360       0.43611417 </v>
   <v>       0.14571642       0.48350119      -0.44637383 </v>
   <v>      -0.43763191      -0.42646887      -0.41427963 </v>
   <v>       0.37377246      -0.26656628      -0.44436471 </v>
   <v>       0.30340285      -0.29398775      -0.44463206 </v>
   <v>       0.19390086      -0.39385043      -0.45328934 </v>
   <v>       0.14093354      -0.46442918      -0.46154557 </v>
   <v>      -0.44709139       0.48931427      -0.47912054 </v>
   <v>       0.36240359       0.37485628       0.37361102 </v>
   <v>      -0.48244824       0.44528721       0.46617852 </v>
   <v>       0.42819717       0.40862612       0.37494072 </v>
   <v>       0.41910946      -0.19335773      -0.45010003 </v>
   <v>       0.47063350      -0.18031780      -0.45906156 </v>
   <v>       0.18150410      -0.35493413      -0.46221922 </v>
   <v>      -0.40463097       0.48504347      -0.45430977 </v>
   <v>       0.46901134       0.41169901       0.33032878 </v>
   <v>       0.07129490      -0.47527723      -0.49011398 </v>
   <v>      -0.47514006      -0.15602959       0.45066496 </v>
   <v>      -0.46921422       0.38571286       0.44646991 </v>
   <v>       0.48135016       0.32426984       0.44305956 </v>
   <v>       0.14204879      -0.39541777       0.36627964 </v>
   <v>       0.12682137      -0.38042212       0.42087972 </v>
   <v>       0.01541752       0.43773200      -0.42214094 </v>
   <v>       0.40155699      -0.14038739      -0.45602608 </v>
   <v>       0.15889397      -0.32216086       0.44991532 </v>
   <v>       0.49660816      -0.12510920       0.42367903 </v>
   <v>       0.06347767      -0.43869730       0.45548079 </v>
   <v>       0.00926369       0.46754828      -0.46292671 </v>
   <v>       0.46354337      -0.14139420       0.37048762 </v>
   <v>       0.34500336      -0.14574445      -0.43881002 </v>
   <v>      -0.36173851       0.46144852       0.43714904 </v>
   <v>      -0.39742560       0.40805487       0.43789162 </v>
   <v>       0.45983020      -0.07027926      -0.48483759 </v>
   <v>      -0.49735729      -0.06195528       0.45924494 </v>
   <v>      -0.00378739      -0.45929407       0.42931532 </v>
   <v>      -0.05796334       0.44895280      -0.48715917 </v>
   <v>      -0.36514465       0.36694255       0.43329165 </v>
   <v>      -0.06545551       0.48530921       0.45846285 </v>
   <v>      -0.10543179       0.40632372      -0.46298333 </v>
   <v>       0.46563639      -0.00851356      -0.45637971 </v>
   <v>      -0.37995296      -0.02082637       0.36638834 </v>
   <v>      -0.01042331      -0.42376151       0.36850975 </v>
   <v>      -0.40467575       0.29601085       0.43348812 </v>
   <v>       0.43084125      -0.01512955      -0.41435508 </v>
   <v>      -0.45156214       0.00557389       0.43270099 </v>
   <v>       0.02361160      -0.35786689       0.36762211 </v>
   <v>      -0.29335763       0.40648675       0.43117355 </v>
   <v>      -0.41173239       0.01288171       0.37006330 </v>
   <v>      -0.04918179      -0.46364302       0.32372623 </v>
   <v>      -0.48623625       0.05904303      -0.48088344 </v>
   <v>      -0.44415312       0.06702116       0.46312997 </v>
   <v>      -0.17071796       0.36435263       0.43018692 </v>
   <v>      -0.13823808       0.47206240       0.43844656 </v>
   <v>      -0.36546492       0.26364801       0.43171741 </v>
   <v>      -0.45996850       0.17214082       0.43666713 </v>
   <v>      -0.41458767       0.05190358       0.32666467 </v>
   <v>      -0.26203367       0.36720327       0.42956949 </v>
   <v>      -0.18825878       0.39994935       0.43097398 </v>
   <v>      -0.15008460      -0.47868802       0.43423902 </v>
   <v>      -0.40671966       0.18983252       0.43541838 </v>
   <v>      -0.48047767       0.10633015      -0.45574872 </v>
   <v>      -0.29469142       0.29530428       0.42901500 </v>
   <v>      -0.38473362       0.14001506       0.44238517 </v>
   <v>      -0.32364473       0.15194775       0.43716354 </v>
  </varray>
 </structure>
 <varray name="primitive_index" >
  <v type="int" >        1 </v>
  <v type="int" >       64 </v>
  <v type="int" >       14 </v>
  <v type="int" >       55 </v>
  <v type="int" >       42 </v>
  <v type="int" >       62 </v>
  <v type="int" >       77 </v>
  <v type="int" >       41 </v>
  <v type="int" >       28 </v>
  <v type="int" >       60 </v>
  <v type="int" >       61 </v>
  <v type="int" >       53 </v>
  <v type="int" >       15 </v>
  <v type="int" >       40 </v>
  <v type="int" >       29 </v>
  <v type="int" >       59 </v>
  <v type="int" >       11 </v>
  <v type="int" >       13 </v>
  <v type="int" >       63 </v>
  <v type="int" >       65 </v>
  <v type="int" >       38 </v>
  <v type="int" >       39 </v>
  <v type="int" >       56 </v>
  <v type="int" >       27 </v>
  <v type="int" >       78 </v>
  <v type="int" >       66 </v>
  <v type="int" >        3 </v>
  <v type="int" >        2 </v>
  <v type="int" >       12 </v>
  <v type="int" >       54 </v>
  <v type="int" >       37 </v>
  <v type="int" >       45 </v>
  <v type="int" >       30 </v>
  <v type="int" >       57 </v>
  <v type="int" >       48 </v>
  <v type="int" >       75 </v>
  <v type="int" >        9 </v>
  <v type="int" >       34 </v>
  <v type="int" >       50 </v>
  <v type="int" >       73 </v>
  <v type="int" >       24 </v>
  <v type="int" >       36 </v>
  <v type="int" >       43 </v>
  <v type="int" >       58 </v>
  <v type="int" >        4 </v>
  <v type="int" >       70 </v>
  <v type="int" >       33 </v>
  <v type="int" >       20 </v>
  <v type="int" >       25 </v>
  <v type="int" >       35 </v>
  <v type="int" >       17 </v>
  <v type="int" >       23 </v>
  <v type="int" >       10 </v>
  <v type="int" >       32 </v>
  <v type="int" >       46 </v>
  <v type="int" >       76 </v>
  <v type="int" >       67 </v>
  <v type="int" >        7 </v>
  <v type="int" >       21 </v>
  <v type="int" >       51 </v>
  <v type="int" >       68 </v>
  <v type="int" >       74 </v>
  <v type="int" >       49 </v>
  <v type="int" >       31 </v>
  <v type="int" >       19 </v>
  <v type="int" >        5 </v>
  <v type="int" >       26 </v>
  <v type="int" >       16 </v>
  <v type="int" >        6 </v>
  <v type="int" >       44 </v>
  <v type="int" >       18 </v>
  <v type="int" >       71 </v>
  <v type="int" >       52 </v>
  <v type="int" >       72 </v>
  <v type="int" >        8 </v>
  <v type="int" >       69 </v>
  <v type="int" >       22 </v>
  <v type="int" >       47 </v>
 </varray>
 <kpoints>
  <generation param="listgenerated">
   <i name="divisions" type="int">      20 </i>
   <v>       0.00000000       0.00000000       0.00000000 </v>
   <v>       0.50000000      -0.50000000       0.00000000 </v>
   <v>       0.66789548      -0.33289020       0.00000000 </v>
   <v>       0.50000000       0.00000000       0.00000000 </v>
   <v>       0.33210452       0.33289020       0.00000000 </v>
   <v>       0.00000000       0.50000000       0.00000000 </v>
   <v>       0.00000000       0.00000000       0.00000000 </v>
  </generation>
  <varray name="kpointlist" >
   <v>       0.00000000       0.00000000       0.00000000 </v>
   <v>       0.02631579      -0.02631579       0.00000000 </v>
   <v>       0.05263158      -0.05263158       0.00000000 </v>
   <v>       0.07894737      -0.07894737       0.00000000 </v>
   <v>       0.10526316      -0.10526316       0.00000000 </v>
   <v>       0.13157895      -0.13157895       0.00000000 </v>
   <v>       0.15789474      -0.15789474       0.00000000 </v>
   <v>       0.18421053      -0.18421053       0.00000000 </v>
   <v>       0.21052632      -0.21052632       0.00000000 </v>
   <v>       0.23684211      -0.23684211       0.00000000 </v>
   <v>       0.26315789      -0.26315789       0.00000000 </v>
   <v>       0.28947368      -0.28947368       0.00000000 </v>
   <v>       0.31578947      -0.31578947       0.00000000 </v>
   <v>       0.34210526      -0.34210526       0.00000000 </v>
   <v>       0.36842105      -0.36842105       0.00000000 </v>
   <v>       0.39473684      -0.39473684       0.00000000 </v>
   <v>       0.42105263      -0.42105263       0.00000000 </v>
   <v>       0.44736842      -0.44736842       0.00000000 </v>
   <v>       0.47368421      -0.47368421       0.00000000 </v>
   <v>       0.50000000      -0.50000000       0.00000000 </v>
   <v>       0.50000000      -0.50000000       0.00000000 </v>
   <v>       0.50883660      -0.49120475       0.00000000 </v>
   <v>       0.51767321      -0.48240950       0.00000000 </v>
   <v>       0.52650981      -0.47361424       0.00000000 </v>
   <v>       0.53534642      -0.46481899       0.00000000 </v>
   <v>       0.54418302      -0.45602374       0.00000000 </v>
   <v>       0.55301963      -0.44722849       0.00000000 </v>
   <v>       0.56185623      -0.43843323       0.00000000 </v>
   <v>       0.57069283      -0.42963798       0.00000000 </v>
   <v>       0.57952944      -0.42084273       0.00000000 </v>
   <v>       0.58836604      -0.41204748       0.00000000 </v>
   <v>       0.59720265      -0.40325222       0.00000000 </v>
   <v>       0.60603925      -0.39445697       0.00000000 </v>
   <v>       0.61487586      -0.38566172       0.00000000 </v>
   <v>       0.62371246      -0.37686647       0.00000000 </v>
   <v>       0.63254906      -0.36807121       0.00000000 </v>
   <v>       0.64138567      -0.35927596       0.00000000 </v>
   <v>       0.65022227      -0.35048071       0.00000000 </v>
   <v>       0.65905888      -0.34168546       0.00000000 </v>
   <v>       0.66789548      -0.33289020       0.00000000 </v>
   <v>       0.66789548      -0.33289020       0.00000000 </v>
   <v>       0.65905888      -0.31536967       0.00000000 </v>
   <v>       0.65022227      -0.29784913       0.00000000 </v>
   <v>       0.64138567      -0.28032859       0.00000000 </v>
   <v>       0.63254906      -0.26280805       0.00000000 </v>
   <v>       0.62371246      -0.24528752       0.00000000 </v>
   <v>       0.61487586      -0.22776698       0.00000000 </v>
   <v>       0.60603925      -0.21024644       0.00000000 </v>
   <v>       0.59720265      -0.19272591       0.00000000 </v>
   <v>       0.58836604      -0.17520537       0.00000000 </v>
   <v>       0.57952944      -0.15768483       0.00000000 </v>
   <v>       0.57069283      -0.14016430       0.00000000 </v>
   <v>       0.56185623      -0.12264376       0.00000000 </v>
   <v>       0.55301963      -0.10512322       0.00000000 </v>
   <v>       0.54418302      -0.08760268       0.00000000 </v>
   <v>       0.53534642      -0.07008215       0.00000000 </v>
   <v>       0.52650981      -0.05256161       0.00000000 </v>
   <v>       0.51767321      -0.03504107       0.00000000 </v>
   <v>       0.50883660      -0.01752054       0.00000000 </v>
   <v>       0.50000000       0.00000000       0.00000000 </v>
   <v>       0.50000000       0.00000000       0.00000000 </v>
   <v>       0.49116340       0.01752054       0.00000000 </v>
   <v>       0.48232679       0.03504107       0.00000000 </v>
   <v>       0.47349019       0.05256161       0.00000000 </v>
   <v>       0.46465358       0.07008215       0.00000000 </v>
   <v>       0.45581698       0.08760268       0.00000000 </v>
   <v>       0.44698037       0.10512322       0.00000000 </v>
   <v>       0.43814377       0.12264376       0.00000000 </v>
   <v>       0.42930717       0.14016430       0.00000000 </v>
   <v>       0.42047056       0.15768483       0.00000000 </v>
   <v>       0.41163396       0.17520537       0.00000000 </v>
   <v>       0.40279735       0.19272591       0.00000000 </v>
   <v>       0.39396075       0.21024644       0.00000000 </v>
   <v>       0.38512414       0.22776698       0.00000000 </v>
   <v>       0.37628754       0.24528752       0.00000000 </v>
   <v>       0.36745094       0.26280805       0.00000000 </v>
   <v>       0.35861433       0.28032859       0.00000000 </v>
   <v>       0.34977773       0.29784913       0.00000000 </v>
   <v>       0.34094112       0.31536967       0.00000000 </v>
   <v>       0.33210452       0.33289020       0.00000000 </v>
   <v>       0.33210452       0.33289020       0.00000000 </v>
   <v>       0.31462533       0.34168546       0.00000000 </v>
   <v>       0.29714615       0.35048071       0.00000000 </v>
   <v>       0.27966696       0.35927596       0.00000000 </v>
   <v>       0.26218778       0.36807121       0.00000000 </v>
   <v>       0.24470859       0.37686647       0.00000000 </v>
   <v>       0.22722941       0.38566172       0.00000000 </v>
   <v>       0.20975022       0.39445697       0.00000000 </v>
   <v>       0.19227104       0.40325222       0.00000000 </v>
   <v>       0.17479185       0.41204748       0.00000000 </v>
   <v>       0.15731267       0.42084273       0.00000000 </v>
   <v>       0.13983348       0.42963798       0.00000000 </v>
   <v>       0.12235430       0.43843323       0.00000000 </v>
   <v>       0.10487511       0.44722849       0.00000000 </v>
   <v>       0.08739593       0.45602374       0.00000000 </v>
   <v>       0.06991674       0.46481899       0.00000000 </v>
   <v>       0.05243756       0.47361424       0.00000000 </v>
   <v>       0.03495837       0.48240950       0.00000000 </v>
   <v>       0.01747919       0.49120475       0.00000000 </v>
   <v>       0.00000000       0.50000000       0.00000000 </v>
   <v>       0.00000000       0.50000000       0.00000000 </v>
   <v>       0.00000000       0.47368421       0.00000000 </v>
   <v>       0.00000000       0.44736842       0.00000000 </v>
   <v>       0.00000000       0.42105263       0.00000000 </v>
   <v>       0.00000000       0.39473684       0.00000000 </v>
   <v>       0.00000000       0.36842105       0.00000000 </v>
   <v>       0.00000000       0.34210526       0.00000000 </v>
   <v>       0.00000000       0.31578947       0.00000000 </v>
   <v>       0.00000000       0.28947368       0.00000000 </v>
   <v>       0.00000000       0.26315789       0.00000000 </v>
   <v>       0.00000000       0.23684211       0.00000000 </v>
   <v>       0.00000000       0.21052632       0.00000000 </v>
   <v>       0.00000000       0.18421053       0.00000000 </v>
   <v>       0.00000000       0.15789474       0.00000000 </v>
   <v>       0.00000000       0.13157895       0.00000000 </v>
   <v>       0.00000000       0.10526316       0.00000000 </v>
   <v>       0.00000000       0.07894737       0.00000000 </v>
   <v>       0.00000000       0.05263158       0.00000000 </v>
   <v>       0.00000000       0.02631579       0.00000000 </v>
   <v>       0.00000000       0.00000000       0.00000000 </v>
  </varray>
  <varray name="weights" >
   <v>       0.00833333 </v>
   <v>       0.00833333 </v>
   <v>       0.00833333 </v>
   <v>       0.00833333 </v>
   <v>       0.00833333 </v>
   <v>       0.00833333 </v>
   <v>       0.00833333 </v>
   <v>       0.00833333 </v>
   <v>       0.00833333 </v>
   <v>       0.00833333 </v>
   <v>       0.00833333 </v>
   <v>       0.00833333 </v>
   <v>       0.00833333 </v>
   <v>       0.00833333 </v>
   <v>       0.00833333 </v>
   <v>       0.00833333 </v>
   <v>       0.00833333 </v>
   <v>       0.00833333 </v>
   <v>       0.00833333 </v>
   <v>       0.00833333 </v>
   <v>       0.00833333 </v>
   <v>       0.00833333 </v>
   <v>       0.00833333 </v>
   <v>       0.00833333 </v>
   <v>       0.00833333 </v>
   <v>       0.00833333 </v>
   <v>       0.00833333 </v>
   <v>       0.00833333 </v>
   <v>       0.00833333 </v>
   <v>       0.00833333 </v>
   <v>       0.00833333 </v>
   <v>       0.00833333 </v>
   <v>       0.00833333 </v>
   <v>       0.00833333 </v>
   <v>       0.00833333 </v>
   <v>       0.00833333 </v>
   <v>       0.00833333 </v>
   <v>       0.00833333 </v>
   <v>       0.00833333 </v>
   <v>       0.00833333 </v>
   <v>       0.00833333 </v>
   <v>       0.00833333 </v>
   <v>       0.00833333 </v>
   <v>       0.00833333 </v>
   <v>       0.00833333 </v>
   <v>       0.00833333 </v>
   <v>       0.00833333 </v>
   <v>       0.00833333 </v>
   <v>       0.00833333 </v>
   <v>       0.00833333 </v>
   <v>       0.00833333 </v>
   <v>       0.00833333 </v>
   <v>       0.00833333 </v>
   <v>       0.00833333 </v>
   <v>       0.00833333 </v>
   <v>       0.00833333 </v>
   <v>       0.00833333 </v>
   <v>       0.00833333 </v>
   <v>       0.00833333 </v>
   <v>       0.00833333 </v>
   <v>       0.00833333 </v>
   <v>       0.00833333 </v>
   <v>       0.00833333 </v>
   <v>       0.00833333 </v>
   <v>       0.00833333 </v>
   <v>       0.00833333 </v>
   <v>       0.00833333 </v>
   <v>       0.00833333 </v>
   <v>       0.00833333 </v>
   <v>       0.00833333 </v>
   <v>       0.00833333 </v>
   <v>       0.00833333 </v>
   <v>       0.00833333 </v>
   <v>       0.00833333 </v>
   <v>       0.00833333 </v>
   <v>       0.00833333 </v>
   <v>       0.00833333 </v>
   <v>       0.00833333 </v>
   <v>       0.00833333 </v>
   <v>       0.00833333 </v>
   <v>       0.00833333 </v>
   <v>       0.00833333 </v>
   <v>       0.00833333 </v>
   <v>       0.00833333 </v>
   <v>       0.00833333 </v>
   <v>       0.00833333 </v>
   <v>       0.00833333 </v>
   <v>       0.00833333 </v>
   <v>       0.00833333 </v>
   <v>       0.00833333 </v>
   <v>       0.00833333 </v>
   <v>       0.00833333 </v>
   <v>       0.00833333 </v>
   <v>       0.00833333 </v>
   <v>       0.00833333 </v>
   <v>       0.00833333 </v>
   <v>       0.00833333 </v>
   <v>       0.00833333 </v>
   <v>       0.00833333 </v>
   <v>       0.00833333 </v>
   <v>       0.00833333 </v>
   <v>       0.00833333 </v>
   <v>       0.00833333 </v>
   <v>       0.00833333 </v>
   <v>       0.00833333 </v>
   <v>       0.00833333 </v>
   <v>       0.00833333 </v>
   <v>       0.00833333 </v>
   <v>       0.00833333 </v>
   <v>       0.00833333 </v>
   <v>       0.00833333 </v>
   <v>       0.00833333 </v>
   <v>       0.00833333 </v>
   <v>       0.00833333 </v>
   <v>       0.00833333 </v>
   <v>       0.00833333 </v>
   <v>       0.00833333 </v>
   <v>       0.00833333 </v>
   <v>       0.00833333 </v>
   <v>       0.00833333 </v>
  </varray>
 </kpoints>
 <parameters>
  <separator name="general" >
   <i type="string" name="SYSTEM">Simulation for cell shape cell volume r</i>
   <i type="logical" name="LCOMPAT"> F  </i>
  </separator>
  <separator name="electronic" >
   <i type="string" name="PREC">high</i>
   <i name="ENMAX">    500.00000000</i>
   <i name="ENAUG">    644.87300000</i>
   <i name="EDIFF">      0.00001000</i>
   <i type="int" name="IALGO">    38</i>
   <i type="int" name="IWAVPR">    10</i>
   <i type="int" name="NBANDS">   208</i>
   <i name="NELECT">    330.00000000</i>
   <i type="int" name="TURBO">     0</i>
   <i type="int" name="IRESTART">     0</i>
   <i type="int" name="NREBOOT">     0</i>
   <i type="int" name="NMIN">     0</i>
   <i name="EREF">      0.00000000</i>
   <separator name="electronic smearing" >
    <i type="int" name="ISMEAR">     0</i>
    <i name="SIGMA">      0.01000000</i>
    <i name="KSPACING">      0.50000000</i>
    <i type="logical" name="KGAMMA"> T  </i>
   </separator>
   <separator name="electronic projectors" >
    <i type="logical" name="LREAL"> T  </i>
    <v name="ROPT">     -0.00040000     -0.00040000     -0.00040000     -0.00040000</v>
    <i type="int" name="LMAXPAW">  -100</i>
    <i type="int" name="LMAXMIX">     2</i>
    <i type="logical" name="NLSPLINE"> F  </i>
   </separator>
   <separator name="electronic startup" >
    <i type="int" name="ISTART">     1</i>
    <i type="int" name="ICHARG">    11</i>
    <i type="int" name="INIWAV">     1</i>
   </separator>
   <separator name="electronic spin" >
    <i type="int" name="ISPIN">     1</i>
    <i type="logical" name="LNONCOLLINEAR"> F  </i>
    <v name="MAGMOM">      1.00000000      1.00000000      1.00000000      1.00000000      1.00000000      1.00000000      1.00000000      1.00000000      1.00000000      1.00000000      1.00000000      1.00000000      1.00000000      1.00000000      1.00000000      1.00000000      1.00000000      1.00000000      1.00000000      1.00000000
      1.00000000      1.00000000      1.00000000      1.00000000      1.00000000      1.00000000      1.00000000      1.00000000      1.00000000      1.00000000      1.00000000      1.00000000      1.00000000      1.00000000      1.00000000      1.00000000      1.00000000      1.00000000      1.00000000      1.00000000
      1.00000000      1.00000000      1.00000000      1.00000000      1.00000000      1.00000000      1.00000000      1.00000000      1.00000000      1.00000000      1.00000000      1.00000000      1.00000000      1.00000000      1.00000000      1.00000000      1.00000000      1.00000000      1.00000000      1.00000000
      1.00000000      1.00000000      1.00000000      1.00000000      1.00000000      1.00000000      1.00000000      1.00000000      1.00000000      1.00000000      1.00000000      1.00000000      1.00000000      1.00000000      1.00000000      1.00000000      1.00000000      1.00000000</v>
    <i name="NUPDOWN">     -1.00000000</i>
    <i type="logical" name="LSORBIT"> F  </i>
    <v name="SAXIS">      0.00000000      0.00000000      1.00000000</v>
    <i type="logical" name="LSPIRAL"> F  </i>
    <v name="QSPIRAL">      0.00000000      0.00000000      0.00000000</v>
    <i type="logical" name="LZEROZ"> F  </i>
   </separator>
   <separator name="electronic exchange-correlation" >
    <i type="logical" name="LASPH"> F  </i>
    <i type="logical" name="LMETAGGA"> F  </i>
   </separator>
   <separator name="electronic convergence" >
    <i type="int" name="NELM">   200</i>
    <i type="int" name="NELMDL">     0</i>
    <i type="int" name="NELMIN">     2</i>
    <i name="ENINI">    500.00000000</i>
    <separator name="electronic convergence detail" >
     <i type="logical" name="LDIAG"> T  </i>
     <i type="logical" name="LSUBROT"> F  </i>
     <i name="WEIMIN">      0.00000000</i>
     <i name="EBREAK">      0.00000001</i>
     <i name="DEPER">      0.30000000</i>
     <i type="int" name="NRMM">     4</i>
     <i name="TIME">      0.40000000</i>
    </separator>
   </separator>
   <separator name="electronic mixer" >
    <i name="AMIX">      0.40000000</i>
    <i name="BMIX">      1.00000000</i>
    <i name="AMIN">      0.10000000</i>
    <i name="AMIX_MAG">      1.60000000</i>
    <i name="BMIX_MAG">      1.00000000</i>
    <separator name="electronic mixer details" >
     <i type="int" name="IMIX">     4</i>
     <i type="logical" name="MIXFIRST"> F  </i>
     <i type="int" name="MAXMIX">   -45</i>
     <i name="WC">    100.00000000</i>
     <i type="int" name="INIMIX">     1</i>
     <i type="int" name="MIXPRE">     1</i>
     <i type="int" name="MREMOVE">     5</i>
    </separator>
   </separator>
   <separator name="electronic dipolcorrection" >
    <i type="logical" name="LDIPOL"> F  </i>
    <i type="logical" name="LMONO"> F  </i>
    <i type="int" name="IDIPOL">     0</i>
    <i name="EPSILON">      1.00000000</i>
    <v name="DIPOL">   -100.00000000   -100.00000000   -100.00000000</v>
    <i name="EFIELD">      0.00000000</i>
   </separator>
  </separator>
  <separator name="grids" >
   <i type="int" name="NGX">   160</i>
   <i type="int" name="NGY">   160</i>
   <i type="int" name="NGZ">   150</i>
   <i type="int" name="NGXF">   240</i>
   <i type="int" name="NGYF">   240</i>
   <i type="int" name="NGZF">   224</i>
   <i type="logical" name="ADDGRID"> F  </i>
  </separator>
  <separator name="ionic" >
   <i type="int" name="NSW">     0</i>
   <i type="int" name="IBRION">    -1</i>
   <i type="int" name="MDALGO">     0</i>
   <i type="int" name="ISIF">     2</i>
   <i name="PSTRESS">      0.00000000</i>
   <i name="EDIFFG">     -0.01000000</i>
   <i type="int" name="NFREE">     0</i>
   <i name="POTIM">      0.30000000</i>
   <i name="SMASS">     -3.00000000</i>
   <i name="SCALEE">      1.00000000</i>
  </separator>
  <separator name="ionic md" >
   <i name="TEBEG">      0.00010000</i>
   <i name="TEEND">      0.00010000</i>
   <i type="int" name="NBLOCK">     1</i>
   <i type="int" name="KBLOCK">     1</i>
   <i type="int" name="NPACO">   256</i>
   <i name="APACO">     16.00000000</i>
  </separator>
  <separator name="symmetry" >
   <i type="int" name="ISYM">     2</i>
   <i name="SYMPREC">      0.00001000</i>
  </separator>
  <separator name="dos" >
   <i type="int" name="LORBIT">     0</i>
   <v name="RWIGS">     -1.00000000     -1.00000000     -1.00000000     -1.00000000</v>
   <i type="int" name="NEDOS">   301</i>
   <i name="EMIN">     10.00000000</i>
   <i name="EMAX">    -10.00000000</i>
   <i name="EFERMI">      0.00000000</i>
  </separator>
  <separator name="writing" >
   <i type="int" name="NWRITE">     0</i>
   <i type="logical" name="LWAVE"> F  </i>
   <i type="logical" name="LDOWNSAMPLE"> F  </i>
   <i type="logical" name="LCHARG"> F  </i>
   <i type="logical" name="LPARD"> F  </i>
   <i type="logical" name="LVTOT"> F  </i>
   <i type="logical" name="LVHAR"> F  </i>
   <i type="logical" name="LELF"> F  </i>
   <i type="logical" name="LOPTICS"> F  </i>
   <v name="STM">      0.00000000      0.00000000      0.00000000      0.00000000      0.00000000      0.00000000      0.00000000</v>
  </separator>
  <separator name="performance" >
   <i type="int" name="NPAR">    16</i>
   <i type="int" name="NSIM">     4</i>
   <i type="int" name="NBLK">    -1</i>
   <i type="logical" name="LPLANE"> T  </i>
   <i type="logical" name="LSCALAPACK"> T  </i>
   <i type="logical" name="LSCAAWARE"> F  </i>
   <i type="logical" name="LSCALU"> F  </i>
   <i type="logical" name="LASYNC"> F  </i>
   <i type="logical" name="LORBITALREAL"> F  </i>
  </separator>
  <separator name="miscellaneous" >
   <i type="int" name="IDIOT">     3</i>
   <i type="int" name="ISPECIAL">     0</i>
   <i type="logical" name="LMUSIC"> F  </i>
   <v name="POMASS">      1.00000000     12.01100000     16.00000000     14.00100000</v>
   <v name="DARWINR">      0.00000000      0.00000000      0.00000000      0.00000000</v>
   <v name="DARWINV">      1.00000000      1.00000000      1.00000000      1.00000000</v>
   <i type="logical" name="LCORR"> T  </i>
  </separator>
  <i type="logical" name="GGA_COMPAT"> T  </i>
  <i type="logical" name="LBERRY"> F  </i>
  <i type="int" name="ICORELEVEL">     0</i>
  <i type="logical" name="LDAU"> F  </i>
  <i type="int" name="I_CONSTRAINED_M">     0</i>
  <separator name="electronic exchange-correlation" >
   <i type="string" name="GGA">PE</i>
   <i type="int" name="VOSKOWN">     0</i>
   <i type="logical" name="LHFCALC"> F  </i>
   <i type="string" name="PRECFOCK"></i>
   <i type="logical" name="LSYMGRAD"> F  </i>
   <i type="logical" name="LHFONE"> F  </i>
   <i type="logical" name="LRHFCALC"> F  </i>
   <i type="logical" name="LTHOMAS"> F  </i>
   <i type="logical" name="LMODELHF"> F  </i>
   <i name="ENCUT4O">     -1.00000000</i>
   <i type="int" name="EXXOEP">     0</i>
   <i type="int" name="FOURORBIT">     0</i>
   <i name="AEXX">      0.00000000</i>
   <i name="HFALPHA">      0.00000000</i>
   <i name="MCALPHA">      0.00000000</i>
   <i name="ALDAX">      1.00000000</i>
   <i name="AGGAX">      1.00000000</i>
   <i name="ALDAC">      1.00000000</i>
   <i name="AGGAC">      1.00000000</i>
   <i type="int" name="NKREDX">     1</i>
   <i type="int" name="NKREDY">     1</i>
   <i type="int" name="NKREDZ">     1</i>
   <i type="logical" name="SHIFTRED"> F  </i>
   <i type="logical" name="ODDONLY"> F  </i>
   <i type="logical" name="EVENONLY"> F  </i>
   <i type="int" name="LMAXFOCK">     0</i>
   <i type="int" name="NMAXFOCKAE">     0</i>
   <i type="logical" name="LFOCKAEDFT"> F  </i>
   <i name="HFSCREEN">      0.00000000</i>
   <i name="HFSCREENC">      0.00000000</i>
   <i type="int" name="NBANDSGWLOW">     0</i>
  </separator>
  <separator name="vdW DFT" >
   <i type="logical" name="LUSE_VDW"> F  </i>
   <i name="Zab_VDW">     -0.84910000</i>
   <i name="PARAM1">      0.12340000</i>
   <i name="PARAM2">      1.00000000</i>
   <i name="PARAM3">      0.00000000</i>
  </separator>
  <separator name="model GW" >
   <i type="int" name="MODEL_GW">     0</i>
   <i name="MODEL_EPS0">     62.52754182</i>
   <i name="MODEL_ALPHA">      1.00000000</i>
  </separator>
  <separator name="linear response parameters" >
   <i type="logical" name="LEPSILON"> F  </i>
   <i type="logical" name="LRPA"> F  </i>
   <i type="logical" name="LNABLA"> F  </i>
   <i type="logical" name="LVEL"> F  </i>
   <i type="int" name="KINTER">     0</i>
   <i name="CSHIFT">      0.10000000</i>
   <i name="OMEGAMAX">     -1.00000000</i>
   <i name="DEG_THRESHOLD">      0.00200000</i>
   <i name="RTIME">     -0.10000000</i>
   <i name="WPLASMAI">      0.00000000</i>
   <v name="DFIELD">      0.00000000      0.00000000      0.00000000</v>
   <v name="WPLASMA">      0.00000000      0.00000000      0.00000000      0.00000000      0.00000000      0.00000000      0.00000000      0.00000000      0.00000000</v>
  </separator>
  <separator name="orbital magnetization" >
   <i type="logical" name="NUCIND"> F  </i>
   <v name="MAGPOS">      0.00000000      0.00000000      0.00000000</v>
   <i type="logical" name="LNICSALL"> T  </i>
   <i type="logical" name="ORBITALMAG"> F  </i>
   <i type="logical" name="LMAGBLOCH"> F  </i>
   <i type="logical" name="LCHIMAG"> F  </i>
   <i type="logical" name="LGAUGE"> T  </i>
   <i type="int" name="MAGATOM">     0</i>
   <v name="MAGDIPOL">      0.00000000      0.00000000      0.00000000</v>
   <v name="AVECCONST">      0.00000000      0.00000000      0.00000000</v>
  </separator>
  <separator name="response functions" >
   <i type="logical" name="LADDER"> F  </i>
   <i type="logical" name="LRPAFORCE"> F  </i>
   <i type="logical" name="LFXC"> F  </i>
   <i type="logical" name="LHARTREE"> T  </i>
   <i type="int" name="IBSE">     0</i>
   <v type="int" name="KPOINT">    -1     0     0     0</v>
   <i type="logical" name="LTCTE"> F  </i>
   <i type="logical" name="LTETE"> F  </i>
   <i type="logical" name="LTRIPLET"> F  </i>
   <i type="logical" name="LFXCEPS"> F  </i>
   <i type="logical" name="LFXHEG"> F  </i>
   <i type="int" name="NATURALO">     2</i>
   <i type="logical" name="L2ORDER"> F  </i>
   <i type="logical" name="LMP2LT"> F  </i>
   <i type="logical" name="LUSEW"> F  </i>
   <i name="ENCUTGW">     -2.00000000</i>
   <i name="ENCUTGWSOFT">     -2.00000000</i>
   <i name="ENCUTLF">     -1.00000000</i>
   <i type="int" name="LMAXMP2">    -1</i>
   <i name="SCISSOR">      0.00000000</i>
   <i type="int" name="NOMEGA">     0</i>
   <i type="int" name="NOMEGAR">     0</i>
   <i type="int" name="NBANDSGW">    -1</i>
   <i type="int" name="NBANDSO">    -1</i>
   <i type="int" name="NBANDSV">    -1</i>
   <i type="int" name="NELM">   200</i>
   <i type="int" name="NELMHF">     1</i>
   <i type="int" name="DIM">     3</i>
   <i type="int" name="ANTIRES">     0</i>
   <i name="OMEGAMAX">    -30.00000000</i>
   <i name="OMEGAMIN">    -30.00000000</i>
   <i name="OMEGATL">   -200.00000000</i>
   <i type="int" name="OMEGAGRID">   140</i>
   <i name="CSHIFT">     -0.10000000</i>
   <i type="logical" name="SELFENERGY"> F  </i>
   <i type="logical" name="LSPECTRAL"> F  </i>
   <i type="logical" name="LSPECTRALGW"> F  </i>
   <i type="logical" name="LSINGLES"> F  </i>
   <i type="logical" name="LFERMIGW"> F  </i>
   <i type="logical" name="ODDONLYGW"> F  </i>
   <i type="logical" name="EVENONLYGW"> F  </i>
   <i type="int" name="NKREDLFX">     1</i>
   <i type="int" name="NKREDLFY">     1</i>
   <i type="int" name="NKREDLFZ">     1</i>
   <i type="int" name="MAXMEM">  2800</i>
   <i type="int" name="TELESCOPE">     0</i>
   <i type="int" name="TAUPAR">     1</i>
   <i type="int" name="OMEGAPAR">    -1</i>
   <i name="LAMBDA">      1.00000000</i>
  </separator>
  <separator name="External order field" >
   <i name="OFIELD_KAPPA">      0.00000000</i>
   <v name="OFIELD_K">      0.00000000      0.00000000      0.00000000</v>
   <i name="OFIELD_Q6_NEAR">      0.00000000</i>
   <i name="OFIELD_Q6_FAR">      0.00000000</i>
   <i name="OFIELD_A">      0.00000000</i>
  </separator>
  <separator name="solvation model" >
   <i type="logical" name="LSOL"> F  </i>
  </separator>
 </parameters>
 <atominfo>
  <atoms>      78 </atoms>
  <types>       4 </types>
  <array name="atoms" >
   <dimension dim="1">ion</dimension>
   <field type="string">element</field>
   <field type="int">atomtype</field>
   <set>
    <rc><c>H </c><c>   1</c></rc>
    <rc><c>H </c><c>   1</c></rc>
    <rc><c>H </c><c>   1</c></rc>
    <rc><c>H </c><c>   1</c></rc>
    <rc><c>H </c><c>   1</c></rc>
    <rc><c>H </c><c>   1</c></rc>
    <rc><c>H </c><c>   1</c></rc>
    <rc><c>H </c><c>   1</c></rc>
    <rc><c>H </c><c>   1</c></rc>
    <rc><c>H </c><c>   1</c></rc>
    <rc><c>H </c><c>   1</c></rc>
    <rc><c>H </c><c>   1</c></rc>
    <rc><c>C </c><c>   2</c></rc>
    <rc><c>C </c><c>   2</c></rc>
    <rc><c>C </c><c>   2</c></rc>
    <rc><c>C </c><c>   2</c></rc>
    <rc><c>C </c><c>   2</c></rc>
    <rc><c>C </c><c>   2</c></rc>
    <rc><c>C </c><c>   2</c></rc>
    <rc><c>C </c><c>   2</c></rc>
    <rc><c>C </c><c>   2</c></rc>
    <rc><c>C </c><c>   2</c></rc>
    <rc><c>C </c><c>   2</c></rc>
    <rc><c>C </c><c>   2</c></rc>
    <rc><c>C </c><c>   2</c></rc>
    <rc><c>C </c><c>   2</c></rc>
    <rc><c>C </c><c>   2</c></rc>
    <rc><c>C </c><c>   2</c></rc>
    <rc><c>C </c><c>   2</c></rc>
    <rc><c>C </c><c>   2</c></rc>
    <rc><c>C </c><c>   2</c></rc>
    <rc><c>C </c><c>   2</c></rc>
    <rc><c>C </c><c>   2</c></rc>
    <rc><c>C </c><c>   2</c></rc>
    <rc><c>C </c><c>   2</c></rc>
    <rc><c>C </c><c>   2</c></rc>
    <rc><c>C </c><c>   2</c></rc>
    <rc><c>C </c><c>   2</c></rc>
    <rc><c>C </c><c>   2</c></rc>
    <rc><c>C </c><c>   2</c></rc>
    <rc><c>C </c><c>   2</c></rc>
    <rc><c>C </c><c>   2</c></rc>
    <rc><c>O </c><c>   3</c></rc>
    <rc><c>O </c><c>   3</c></rc>
    <rc><c>O </c><c>   3</c></rc>
    <rc><c>O </c><c>   3</c></rc>
    <rc><c>O </c><c>   3</c></rc>
    <rc><c>O </c><c>   3</c></rc>
    <rc><c>O </c><c>   3</c></rc>
    <rc><c>O </c><c>   3</c></rc>
    <rc><c>O </c><c>   3</c></rc>
    <rc><c>O </c><c>   3</c></rc>
    <rc><c>O </c><c>   3</c></rc>
    <rc><c>O </c><c>   3</c></rc>
    <rc><c>O </c><c>   3</c></rc>
    <rc><c>O </c><c>   3</c></rc>
    <rc><c>O </c><c>   3</c></rc>
    <rc><c>O </c><c>   3</c></rc>
    <rc><c>O </c><c>   3</c></rc>
    <rc><c>O </c><c>   3</c></rc>
    <rc><c>N </c><c>   4</c></rc>
    <rc><c>N </c><c>   4</c></rc>
    <rc><c>N </c><c>   4</c></rc>
    <rc><c>N </c><c>   4</c></rc>
    <rc><c>N </c><c>   4</c></rc>
    <rc><c>N </c><c>   4</c></rc>
    <rc><c>N </c><c>   4</c></rc>
    <rc><c>N </c><c>   4</c></rc>
    <rc><c>N </c><c>   4</c></rc>
    <rc><c>N </c><c>   4</c></rc>
    <rc><c>N </c><c>   4</c></rc>
    <rc><c>N </c><c>   4</c></rc>
    <rc><c>N </c><c>   4</c></rc>
    <rc><c>N </c><c>   4</c></rc>
    <rc><c>N </c><c>   4</c></rc>
    <rc><c>N </c><c>   4</c></rc>
    <rc><c>N </c><c>   4</c></rc>
    <rc><c>N </c><c>   4</c></rc>
   </set>
  </array>
  <array name="atomtypes" >
   <dimension dim="1">type</dimension>
   <field type="int">atomspertype</field>
   <field type="string">element</field>
   <field>mass</field>
   <field>valence</field>
   <field type="string">pseudopotential</field>
   <set>
    <rc><c>  12</c><c>H </c><c>      1.00000000</c><c>      1.00000000</c><c>  PAW_PBE H 15Jun2001                   </c></rc>
    <rc><c>  30</c><c>C </c><c>     12.01100000</c><c>      4.00000000</c><c>  PAW_PBE C 08Apr2002                   </c></rc>
    <rc><c>  18</c><c>O </c><c>     16.00000000</c><c>      6.00000000</c><c>  PAW_PBE O 08Apr2002                   </c></rc>
    <rc><c>  18</c><c>N </c><c>     14.00100000</c><c>      5.00000000</c><c>  PAW_PBE N 08Apr2002                   </c></rc>
   </set>
  </array>
 </atominfo>
 <structure name="initialpos" >
  <crystal>
   <varray name="basis" >
    <v>      21.70342484      -0.03998801       0.00000000 </v>
    <v>     -10.88632081      18.74655024       0.00000000 </v>
    <v>       0.00000000       0.00000000      20.00000000 </v>
   </varray>
   <i name="volume">   8128.58043721 </i>
   <varray name="rec_basis" >
    <v>       0.04612503       0.02678529       0.00000000 </v>
    <v>       0.00009839       0.05340028       0.00000000 </v>
    <v>       0.00000000       0.00000000       0.05000000 </v>
   </varray>
  </crystal>
  <varray name="positions" >
   <v>       0.35513477       0.52983439       0.54190161 </v>
   <v>       0.18150410       0.64506587       0.53778078 </v>
   <v>       0.47063350       0.81968220       0.54093844 </v>
   <v>       0.63826149       0.46144852       0.43714904 </v>
   <v>       0.82928204       0.36435263       0.43018692 </v>
   <v>       0.54003150       0.17214082       0.43666713 </v>
   <v>       0.43084125       0.98487045       0.58564492 </v>
   <v>       0.51952233       0.10633015       0.54425128 </v>
   <v>       0.01541752       0.43773200       0.57785906 </v>
   <v>       0.89456821       0.40632372       0.53701667 </v>
   <v>       0.56236809       0.57353113       0.58572037 </v>
   <v>       0.59536903       0.48504347       0.54569023 </v>
   <v>       0.37377246       0.73343372       0.55563529 </v>
   <v>       0.36580979       0.62656557       0.55613224 </v>
   <v>       0.26680378       0.63403580       0.55429663 </v>
   <v>       0.63453508       0.26364801       0.43171741 </v>
   <v>       0.63485535       0.36694255       0.43329165 </v>
   <v>       0.73796633       0.36720327       0.42956949 </v>
   <v>       0.55584688       0.06702116       0.46312997 </v>
   <v>       0.50264271       0.93804472       0.45924494 </v>
   <v>       0.54843786       0.00557389       0.43270099 </v>
   <v>       0.61526638       0.14001506       0.44238517 </v>
   <v>       0.93454449       0.48530921       0.45846285 </v>
   <v>       0.06347767       0.56130270       0.45548079 </v>
   <v>       0.99621261       0.54070593       0.42931532 </v>
   <v>       0.86176192       0.47206240       0.43844656 </v>
   <v>       0.51755176       0.44528721       0.46617852 </v>
   <v>       0.44095535       0.49695074       0.46176694 </v>
   <v>       0.46247177       0.45093360       0.43611417 </v>
   <v>       0.53078578       0.38571286       0.44646991 </v>
   <v>       0.51376375       0.05904303       0.51911656 </v>
   <v>       0.46563639       0.99148644       0.54362029 </v>
   <v>       0.45983020       0.92972074       0.51516241 </v>
   <v>       0.40155699       0.85961261       0.54397392 </v>
   <v>       0.94203666       0.44895280       0.51284083 </v>
   <v>       0.00926369       0.46754828       0.53707329 </v>
   <v>       0.07129490       0.52472277       0.50988602 </v>
   <v>       0.14093354       0.53557082       0.53845443 </v>
   <v>       0.55290861       0.48931427       0.52087946 </v>
   <v>       0.53341001       0.53737162       0.54463802 </v>
   <v>       0.47636183       0.54141524       0.51662706 </v>
   <v>       0.46448042       0.59968059       0.54475322 </v>
   <v>       0.46354337       0.85860580       0.37048762 </v>
   <v>       0.58541233       0.05190358       0.32666467 </v>
   <v>       0.52485994       0.84397041       0.45066496 </v>
   <v>       0.62004704       0.97917363       0.36638834 </v>
   <v>       0.67635527       0.15194775       0.43716354 </v>
   <v>       0.14204879       0.60458223       0.36627964 </v>
   <v>       0.95081821       0.53635698       0.32372623 </v>
   <v>       0.15889397       0.67783914       0.44991532 </v>
   <v>       0.02361160       0.64213311       0.36762211 </v>
   <v>       0.84991540       0.52131198       0.43423902 </v>
   <v>       0.39826289       0.53105415       0.37140484 </v>
   <v>       0.46901134       0.41169901       0.33032878 </v>
   <v>       0.32432067       0.47403858       0.45451583 </v>
   <v>       0.36240359       0.37485628       0.37361102 </v>
   <v>       0.48135016       0.32426984       0.44305956 </v>
   <v>       0.34500336       0.85425555       0.56118998 </v>
   <v>       0.14571642       0.48350119       0.55362617 </v>
   <v>       0.51593074       0.65679058       0.56119428 </v>
   <v>       0.40904288       0.69706050       0.55677934 </v>
   <v>       0.29389347       0.59096257       0.55588325 </v>
   <v>       0.30340285       0.70601225       0.55536794 </v>
   <v>       0.39372809       0.58152496       0.55101182 </v>
   <v>       0.19390086       0.60614957       0.54671066 </v>
   <v>       0.41910946       0.80664227       0.54989997 </v>
   <v>       0.59532425       0.29601085       0.43348812 </v>
   <v>       0.70664237       0.40648675       0.43117355 </v>
   <v>       0.70530858       0.29530428       0.42901500 </v>
   <v>       0.60257440       0.40805487       0.43789162 </v>
   <v>       0.81174122       0.39994935       0.43097398 </v>
   <v>       0.59328034       0.18983252       0.43541838 </v>
   <v>       0.49660816       0.87489080       0.42367903 </v>
   <v>       0.58826761       0.01288171       0.37006330 </v>
   <v>       0.12682137       0.61957788       0.42087972 </v>
   <v>       0.98957669       0.57623849       0.36850975 </v>
   <v>       0.38291635       0.50102402       0.42617171 </v>
   <v>       0.42819717       0.40862612       0.37494072 </v>
  </varray>
 </structure>
 <calculation>
  <scstep>
   <time name="dav">  254.79  256.91</time>
   <time name="total">  254.95  257.08</time>
   <energy>
    <i name="alphaZ">     58.86974789 </i>
    <i name="ewald">  40959.61524062 </i>
    <i name="hartreedc"> -55097.50149546 </i>
    <i name="XCdc">   1320.12551508 </i>
    <i name="pawpsdc">  31364.02567795 </i>
    <i name="pawaedc"> -31444.43904238 </i>
    <i name="eentropy">     -0.00000000 </i>
    <i name="bandstr">  -4834.16460375 </i>
    <i name="atom">  17108.33292168 </i>
    <i name="e_fr_energy">   -565.13603836 </i>
    <i name="e_wo_entrp">   -565.13603836 </i>
    <i name="e_0_energy">   -565.13603836 </i>
   </energy>
  </scstep>
  <scstep>
   <time name="dav">  286.33  288.74</time>
   <time name="total">  286.35  288.75</time>
   <energy>
    <i name="e_fr_energy">   -566.36438308 </i>
    <i name="e_wo_entrp">   -566.36438308 </i>
    <i name="e_0_energy">   -566.36438308 </i>
   </energy>
  </scstep>
  <scstep>
   <time name="dav">  321.57  324.16</time>
   <time name="total">  321.59  324.18</time>
   <energy>
    <i name="e_fr_energy">   -566.39675852 </i>
    <i name="e_wo_entrp">   -566.39675852 </i>
    <i name="e_0_energy">   -566.39675852 </i>
   </energy>
  </scstep>
  <scstep>
   <time name="dav">  285.67  288.19</time>
   <time name="total">  285.69  288.20</time>
   <energy>
    <i name="e_fr_energy">   -566.39739401 </i>
    <i name="e_wo_entrp">   -566.39739401 </i>
    <i name="e_0_energy">   -566.39739401 </i>
   </energy>
  </scstep>
  <scstep>
   <time name="dav">  278.05  280.66</time>
   <time name="total">  278.07  280.68</time>
   <energy>
    <i name="e_fr_energy">   -566.39742616 </i>
    <i name="e_wo_entrp">   -566.39742616 </i>
    <i name="e_0_energy">   -566.39742616 </i>
   </energy>
  </scstep>
  <scstep>
   <time name="dav">  206.24  208.08</time>
   <time name="total">  206.25  208.10</time>
   <energy>
    <i name="alphaZ">     58.86974789 </i>
    <i name="ewald">  40959.61524062 </i>
    <i name="hartreedc"> -55097.50149546 </i>
    <i name="XCdc">   1320.12551508 </i>
    <i name="pawpsdc">  31364.02567795 </i>
    <i name="pawaedc"> -31444.43904238 </i>
    <i name="eentropy">     -0.00000000 </i>
    <i name="bandstr">  -4835.42599225 </i>
    <i name="atom">  17108.33292168 </i>
    <i name="e_fr_energy">   -566.39742685 </i>
    <i name="e_wo_entrp">   -566.39742685 </i>
    <i name="e_0_energy">   -566.39742685 </i>
   </energy>
  </scstep>
  <structure>
   <crystal>
    <varray name="basis" >
     <v>      21.70342484      -0.03998801       0.00000000 </v>
     <v>     -10.88632081      18.74655024       0.00000000 </v>
     <v>       0.00000000       0.00000000      20.00000000 </v>
    </varray>
    <i name="volume">   8128.58043721 </i>
    <varray name="rec_basis" >
     <v>       0.04612503       0.02678529       0.00000000 </v>
     <v>       0.00009839       0.05340028       0.00000000 </v>
     <v>       0.00000000       0.00000000       0.05000000 </v>
    </varray>
   </crystal>
   <varray name="positions" >
    <v>       0.35513477       0.52983439       0.54190161 </v>
    <v>       0.18150410       0.64506587       0.53778078 </v>
    <v>       0.47063350       0.81968220       0.54093844 </v>
    <v>       0.63826149       0.46144852       0.43714904 </v>
    <v>       0.82928204       0.36435263       0.43018692 </v>
    <v>       0.54003150       0.17214082       0.43666713 </v>
    <v>       0.43084125       0.98487045       0.58564492 </v>
    <v>       0.51952233       0.10633015       0.54425128 </v>
    <v>       0.01541752       0.43773200       0.57785906 </v>
    <v>       0.89456821       0.40632372       0.53701667 </v>
    <v>       0.56236809       0.57353113       0.58572037 </v>
    <v>       0.59536903       0.48504347       0.54569023 </v>
    <v>       0.37377246       0.73343372       0.55563529 </v>
    <v>       0.36580979       0.62656557       0.55613224 </v>
    <v>       0.26680378       0.63403580       0.55429663 </v>
    <v>       0.63453508       0.26364801       0.43171741 </v>
    <v>       0.63485535       0.36694255       0.43329165 </v>
    <v>       0.73796633       0.36720327       0.42956949 </v>
    <v>       0.55584688       0.06702116       0.46312997 </v>
    <v>       0.50264271       0.93804472       0.45924494 </v>
    <v>       0.54843786       0.00557389       0.43270099 </v>
    <v>       0.61526638       0.14001506       0.44238517 </v>
    <v>       0.93454449       0.48530921       0.45846285 </v>
    <v>       0.06347767       0.56130270       0.45548079 </v>
    <v>       0.99621261       0.54070593       0.42931532 </v>
    <v>       0.86176192       0.47206240       0.43844656 </v>
    <v>       0.51755176       0.44528721       0.46617852 </v>
    <v>       0.44095535       0.49695074       0.46176694 </v>
    <v>       0.46247177       0.45093360       0.43611417 </v>
    <v>       0.53078578       0.38571286       0.44646991 </v>
    <v>       0.51376375       0.05904303       0.51911656 </v>
    <v>       0.46563639       0.99148644       0.54362029 </v>
    <v>       0.45983020       0.92972074       0.51516241 </v>
    <v>       0.40155699       0.85961261       0.54397392 </v>
    <v>       0.94203666       0.44895280       0.51284083 </v>
    <v>       0.00926369       0.46754828       0.53707329 </v>
    <v>       0.07129490       0.52472277       0.50988602 </v>
    <v>       0.14093354       0.53557082       0.53845443 </v>
    <v>       0.55290861       0.48931427       0.52087946 </v>
    <v>       0.53341001       0.53737162       0.54463802 </v>
    <v>       0.47636183       0.54141524       0.51662706 </v>
    <v>       0.46448042       0.59968059       0.54475322 </v>
    <v>       0.46354337       0.85860580       0.37048762 </v>
    <v>       0.58541233       0.05190358       0.32666467 </v>
    <v>       0.52485994       0.84397041       0.45066496 </v>
    <v>       0.62004704       0.97917363       0.36638834 </v>
    <v>       0.67635527       0.15194775       0.43716354 </v>
    <v>       0.14204879       0.60458223       0.36627964 </v>
    <v>       0.95081821       0.53635698       0.32372623 </v>
    <v>       0.15889397       0.67783914       0.44991532 </v>
    <v>       0.02361160       0.64213311       0.36762211 </v>
    <v>       0.84991540       0.52131198       0.43423902 </v>
    <v>       0.39826289       0.53105415       0.37140484 </v>
    <v>       0.46901134       0.41169901       0.33032878 </v>
    <v>       0.32432067       0.47403858       0.45451583 </v>
    <v>       0.36240359       0.37485628       0.37361102 </v>
    <v>       0.48135016       0.32426984       0.44305956 </v>
    <v>       0.34500336       0.85425555       0.56118998 </v>
    <v>       0.14571642       0.48350119       0.55362617 </v>
    <v>       0.51593074       0.65679058       0.56119428 </v>
    <v>       0.40904288       0.69706050       0.55677934 </v>
    <v>       0.29389347       0.59096257       0.55588325 </v>
    <v>       0.30340285       0.70601225       0.55536794 </v>
    <v>       0.39372809       0.58152496       0.55101182 </v>
    <v>       0.19390086       0.60614957       0.54671066 </v>
    <v>       0.41910946       0.80664227       0.54989997 </v>
    <v>       0.59532425       0.29601085       0.43348812 </v>
    <v>       0.70664237       0.40648675       0.43117355 </v>
    <v>       0.70530858       0.29530428       0.42901500 </v>
    <v>       0.60257440       0.40805487       0.43789162 </v>
    <v>       0.81174122       0.39994935       0.43097398 </v>
    <v>       0.59328034       0.18983252       0.43541838 </v>
    <v>       0.49660816       0.87489080       0.42367903 </v>
    <v>       0.58826761       0.01288171       0.37006330 </v>
    <v>       0.12682137       0.61957788       0.42087972 </v>
    <v>       0.98957669       0.57623849       0.36850975 </v>
    <v>       0.38291635       0.50102402       0.42617171 </v>
    <v>       0.42819717       0.40862612       0.37494072 </v>
   </varray>
  </structure>
  <varray name="forces" >
   <v>       0.00096313       0.00148966       0.00055688 </v>
   <v>      -0.00147497      -0.00094924      -0.00038574 </v>
   <v>       0.00177980      -0.00008845      -0.00002830 </v>
   <v>      -0.00260549       0.00298621      -0.00051912 </v>
   <v>       0.00097137       0.00072918      -0.00158469 </v>
   <v>       0.00300246      -0.00086697      -0.00108006 </v>
   <v>       0.00028827       0.00027271       0.00189140 </v>
   <v>       0.00221477       0.00089929      -0.00044885 </v>
   <v>      -0.00040914       0.00046530       0.00198902 </v>
   <v>      -0.00101087       0.00076568       0.00156043 </v>
   <v>       0.00001496      -0.00359650       0.00172196 </v>
   <v>       0.00004351      -0.00363629      -0.00007641 </v>
   <v>      -0.00147551       0.00269916      -0.00155113 </v>
   <v>       0.00019923      -0.00130924      -0.00358172 </v>
   <v>      -0.00275790       0.00073535      -0.00290572 </v>
   <v>       0.00141562       0.00024832      -0.00179882 </v>
   <v>       0.00228336       0.00026806      -0.00101813 </v>
   <v>      -0.00248622       0.00155055      -0.00257853 </v>
   <v>       0.00046187       0.00286176      -0.00019588 </v>
   <v>       0.00092820      -0.00227147      -0.00291654 </v>
   <v>      -0.00023061      -0.00072605       0.00134850 </v>
   <v>       0.00658795       0.00314863      -0.00132197 </v>
   <v>       0.00059702       0.00140340       0.00054204 </v>
   <v>      -0.00152481      -0.00109776      -0.00036569 </v>
   <v>      -0.00003945       0.00013686      -0.00216471 </v>
   <v>      -0.00247679       0.00307844       0.00252856 </v>
   <v>      -0.00007639      -0.00111061       0.00017876 </v>
   <v>       0.00008130       0.00012554       0.00073021 </v>
   <v>      -0.00068123      -0.00022045      -0.00093389 </v>
   <v>       0.00434402       0.00250579       0.00006613 </v>
   <v>       0.00214825       0.00100483       0.00002481 </v>
   <v>       0.00053779       0.00145946      -0.00054785 </v>
   <v>       0.00021883       0.00075992      -0.00198810 </v>
   <v>       0.00164300       0.00119143      -0.00242392 </v>
   <v>       0.00097075       0.00131930       0.00175885 </v>
   <v>       0.00074953       0.00146628       0.00059985 </v>
   <v>       0.00024867       0.00030458      -0.00004037 </v>
   <v>      -0.00097107      -0.00197791      -0.00179655 </v>
   <v>       0.00005956      -0.00329899       0.00014331 </v>
   <v>      -0.00234157      -0.00047127       0.00178994 </v>
   <v>      -0.00114357      -0.00007630       0.00071694 </v>
   <v>       0.00087773      -0.00189226      -0.00018567 </v>
   <v>       0.00125727      -0.00064113       0.00093326 </v>
   <v>       0.00113237       0.00071352       0.00154699 </v>
   <v>       0.00142719      -0.00336847       0.00293382 </v>
   <v>       0.00114272       0.00083279       0.00125199 </v>
   <v>      -0.00183399       0.00083049      -0.00047903 </v>
   <v>       0.00036917      -0.00083174       0.00176732 </v>
   <v>      -0.00088926      -0.00006127      -0.00077745 </v>
   <v>       0.00103431      -0.00360748       0.00061904 </v>
   <v>      -0.00047517      -0.00127639      -0.00267766 </v>
   <v>      -0.00205132       0.00060635       0.00565712 </v>
   <v>       0.00072455       0.00212886      -0.00137476 </v>
   <v>      -0.00193558       0.00156480       0.00223805 </v>
   <v>       0.00111891       0.00076117      -0.00021391 </v>
   <v>      -0.00590704      -0.00419871      -0.00008263 </v>
   <v>       0.00105661      -0.00669662       0.00195158 </v>
   <v>       0.00007991      -0.00128640       0.00101718 </v>
   <v>      -0.00135087       0.00586869       0.00086156 </v>
   <v>      -0.00227666       0.00070535      -0.00147451 </v>
   <v>       0.00133499      -0.00062561       0.00270121 </v>
   <v>      -0.00101544       0.00043024       0.00374987 </v>
   <v>       0.00079482       0.00252614       0.00605527 </v>
   <v>       0.00141150      -0.00291955       0.00017568 </v>
   <v>       0.00179862       0.00052613       0.00076579 </v>
   <v>      -0.00096346       0.00032448      -0.00136125 </v>
   <v>       0.00055650      -0.00222911       0.00117051 </v>
   <v>      -0.00309619       0.00142014      -0.00003778 </v>
   <v>      -0.00152206      -0.00203573       0.00030381 </v>
   <v>      -0.00061088      -0.00110267       0.00158050 </v>
   <v>      -0.00120844      -0.00175107      -0.00075666 </v>
   <v>      -0.00168097      -0.00157400      -0.00093650 </v>
   <v>      -0.00019022       0.00080050      -0.00265721 </v>
   <v>      -0.00095601       0.00331085      -0.00424588 </v>
   <v>      -0.00216107      -0.00120615       0.00103438 </v>
   <v>      -0.00210957       0.00087785      -0.00452491 </v>
   <v>      -0.00160032      -0.00233267       0.00024320 </v>
   <v>       0.00666968       0.00323049      -0.00266719 </v>
  </varray>
  <varray name="stress" >
   <v>       0.00866817      -0.00525735       0.00467544 </v>
   <v>      -0.00525735       0.01472451       0.00702694 </v>
   <v>       0.00467544       0.00702693      -0.35118288 </v>
  </varray>
  <energy>
   <i name="e_fr_energy">   -568.27636774 </i>
   <i name="e_wo_entrp">   -568.27636774 </i>
   <i name="e_0_energy">     -0.00000000 </i>
  </energy>
  <time name="totalsc"> 1847.51 1863.98</time>
  <eigenvalues>
   <array>
    <dimension dim="1">band</dimension>
    <dimension dim="2">kpoint</dimension>
    <dimension dim="3">spin</dimension>
    <field>eigene</field>
    <field>occ</field>
    <set>
     <set comment="spin 1">
      <set comment="kpoint 1">
       <r>  -31.4641    1.0000 </r>
       <r>  -31.4623    1.0000 </r>
       <r>  -31.4512    1.0000 </r>
       <r>  -31.0988    1.0000 </r>
       <r>  -31.0960    1.0000 </r>
       <r>  -31.0932    1.0000 </r>
       <r>  -27.1114    1.0000 </r>
       <r>  -27.1091    1.0000 </r>
       <r>  -27.0971    1.0000 </r>
       <r>  -27.0921    1.0000 </r>
       <r>  -26.8818    1.0000 </r>
       <r>  -26.8771    1.0000 </r>
       <r>  -26.8634    1.0000 </r>
       <r>  -26.7788    1.0000 </r>
       <r>  -26.7515    1.0000 </r>
       <r>  -26.7452    1.0000 </r>
       <r>  -26.6665    1.0000 </r>
       <r>  -26.6617    1.0000 </r>
       <r>  -26.3619    1.0000 </r>
       <r>  -26.1368    1.0000 </r>
       <r>  -24.7947    1.0000 </r>
       <r>  -24.7904    1.0000 </r>
       <r>  -24.5316    1.0000 </r>
       <r>  -24.5298    1.0000 </r>
       <r>  -23.5860    1.0000 </r>
       <r>  -23.3530    1.0000 </r>
       <r>  -23.1917    1.0000 </r>
       <r>  -23.1888    1.0000 </r>
       <r>  -23.0676    1.0000 </r>
       <r>  -22.4969    1.0000 </r>
       <r>  -22.4962    1.0000 </r>
       <r>  -22.2294    1.0000 </r>
       <r>  -22.2264    1.0000 </r>
       <r>  -20.8722    1.0000 </r>
       <r>  -20.8683    1.0000 </r>
       <r>  -20.8559    1.0000 </r>
       <r>  -20.7447    1.0000 </r>
       <r>  -20.7444    1.0000 </r>
       <r>  -20.7343    1.0000 </r>
       <r>  -18.9124    1.0000 </r>
       <r>  -18.9089    1.0000 </r>
       <r>  -18.7752    1.0000 </r>
       <r>  -18.5026    1.0000 </r>
       <r>  -18.5005    1.0000 </r>
       <r>  -17.9590    1.0000 </r>
       <r>  -17.7943    1.0000 </r>
       <r>  -17.7912    1.0000 </r>
       <r>  -17.4586    1.0000 </r>
       <r>  -17.4564    1.0000 </r>
       <r>  -17.3002    1.0000 </r>
       <r>  -16.7498    1.0000 </r>
       <r>  -16.4016    1.0000 </r>
       <r>  -16.3984    1.0000 </r>
       <r>  -15.9794    1.0000 </r>
       <r>  -15.4061    1.0000 </r>
       <r>  -15.3466    1.0000 </r>
       <r>  -15.2734    1.0000 </r>
       <r>  -15.2701    1.0000 </r>
       <r>  -15.0417    1.0000 </r>
       <r>  -15.0374    1.0000 </r>
       <r>  -14.9826    1.0000 </r>
       <r>  -14.8462    1.0000 </r>
       <r>  -14.8439    1.0000 </r>
       <r>  -14.3598    1.0000 </r>
       <r>  -14.3538    1.0000 </r>
       <r>  -14.1804    1.0000 </r>
       <r>  -14.1484    1.0000 </r>
       <r>  -14.0130    1.0000 </r>
       <r>  -14.0118    1.0000 </r>
       <r>  -13.7285    1.0000 </r>
       <r>  -13.7261    1.0000 </r>
       <r>  -13.7046    1.0000 </r>
       <r>  -13.4581    1.0000 </r>
       <r>  -13.4553    1.0000 </r>
       <r>  -13.2156    1.0000 </r>
       <r>  -13.1839    1.0000 </r>
       <r>  -13.1365    1.0000 </r>
       <r>  -13.1354    1.0000 </r>
       <r>  -13.0070    1.0000 </r>
       <r>  -13.0033    1.0000 </r>
       <r>  -12.9773    1.0000 </r>
       <r>  -12.9013    1.0000 </r>
       <r>  -12.8977    1.0000 </r>
       <r>  -12.8515    1.0000 </r>
       <r>  -12.8075    1.0000 </r>
       <r>  -12.6760    1.0000 </r>
       <r>  -12.6739    1.0000 </r>
       <r>  -12.6735    1.0000 </r>
       <r>  -12.5526    1.0000 </r>
       <r>  -12.4315    1.0000 </r>
       <r>  -12.3183    1.0000 </r>
       <r>  -12.3162    1.0000 </r>
       <r>  -12.2522    1.0000 </r>
       <r>  -12.2505    1.0000 </r>
       <r>  -12.1878    1.0000 </r>
       <r>  -11.9876    1.0000 </r>
       <r>  -11.9854    1.0000 </r>
       <r>  -11.9497    1.0000 </r>
       <r>  -11.2015    1.0000 </r>
       <r>  -11.2006    1.0000 </r>
       <r>  -11.1153    1.0000 </r>
       <r>  -11.1041    1.0000 </r>
       <r>  -11.0681    1.0000 </r>
       <r>  -10.8899    1.0000 </r>
       <r>  -10.8849    1.0000 </r>
       <r>  -10.7672    1.0000 </r>
       <r>  -10.5556    1.0000 </r>
       <r>  -10.5308    1.0000 </r>
       <r>  -10.5291    1.0000 </r>
       <r>  -10.4895    1.0000 </r>
       <r>  -10.3700    1.0000 </r>
       <r>  -10.3652    1.0000 </r>
       <r>  -10.1843    1.0000 </r>
       <r>  -10.1801    1.0000 </r>
       <r>  -10.1447    1.0000 </r>
       <r>  -10.0410    1.0000 </r>
       <r>  -10.0047    1.0000 </r>
       <r>   -9.9994    1.0000 </r>
       <r>   -9.8049    1.0000 </r>
       <r>   -9.7539    1.0000 </r>
       <r>   -9.4908    1.0000 </r>
       <r>   -9.2875    1.0000 </r>
       <r>   -9.2828    1.0000 </r>
       <r>   -9.0103    1.0000 </r>
       <r>   -9.0036    1.0000 </r>
       <r>   -8.2942    1.0000 </r>
       <r>   -8.2802    1.0000 </r>
       <r>   -8.2740    1.0000 </r>
       <r>   -8.1884    1.0000 </r>
       <r>   -8.1774    1.0000 </r>
       <r>   -8.1747    1.0000 </r>
       <r>   -7.9049    1.0000 </r>
       <r>   -7.9031    1.0000 </r>
       <r>   -7.9014    1.0000 </r>
       <r>   -7.8493    1.0000 </r>
       <r>   -7.8366    1.0000 </r>
       <r>   -7.8322    1.0000 </r>
       <r>   -7.7078    1.0000 </r>
       <r>   -7.7044    1.0000 </r>
       <r>   -7.6987    1.0000 </r>
       <r>   -7.3825    1.0000 </r>
       <r>   -7.3688    1.0000 </r>
       <r>   -7.3676    1.0000 </r>
       <r>   -7.3259    1.0000 </r>
       <r>   -7.2329    1.0000 </r>
       <r>   -7.2259    1.0000 </r>
       <r>   -7.1204    1.0000 </r>
       <r>   -7.1176    1.0000 </r>
       <r>   -7.1098    1.0000 </r>
       <r>   -7.0826    1.0000 </r>
       <r>   -6.9863    1.0000 </r>
       <r>   -6.9806    1.0000 </r>
       <r>   -6.9163    1.0000 </r>
       <r>   -6.9108    1.0000 </r>
       <r>   -6.8067    1.0000 </r>
       <r>   -6.7666    1.0000 </r>
       <r>   -6.7634    1.0000 </r>
       <r>   -6.6917    1.0000 </r>
       <r>   -6.6845    1.0000 </r>
       <r>   -6.5102    1.0000 </r>
       <r>   -6.3073    1.0000 </r>
       <r>   -6.2130    1.0000 </r>
       <r>   -6.2102    1.0000 </r>
       <r>   -6.0523    1.0000 </r>
       <r>   -6.0409    1.0000 </r>
       <r>   -3.7273    0.0000 </r>
       <r>   -3.7194    0.0000 </r>
       <r>   -3.7050    0.0000 </r>
       <r>   -3.6521    0.0000 </r>
       <r>   -3.6460    0.0000 </r>
       <r>   -3.6301    0.0000 </r>
       <r>   -3.2504    0.0000 </r>
       <r>   -3.2475    0.0000 </r>
       <r>   -3.0818    0.0000 </r>
       <r>   -2.6201    0.0000 </r>
       <r>   -2.6153    0.0000 </r>
       <r>   -2.1932    0.0000 </r>
       <r>   -2.1871    0.0000 </r>
       <r>   -2.1840    0.0000 </r>
       <r>   -1.9352    0.0000 </r>
       <r>   -1.9345    0.0000 </r>
       <r>   -1.5459    0.0000 </r>
       <r>   -0.7368    0.0000 </r>
       <r>   -0.6449    0.0000 </r>
       <r>   -0.6422    0.0000 </r>
       <r>   -0.6402    0.0000 </r>
       <r>   -0.3136    0.0000 </r>
       <r>   -0.3080    0.0000 </r>
       <r>   -0.1202    0.0000 </r>
       <r>   -0.1187    0.0000 </r>
       <r>   -0.1111    0.0000 </r>
       <r>   -0.0749    0.0000 </r>
       <r>   -0.0532    0.0000 </r>
       <r>   -0.0499    0.0000 </r>
       <r>    0.2656    0.0000 </r>
       <r>    0.2837    0.0000 </r>
       <r>    0.2857    0.0000 </r>
       <r>    0.4882    0.0000 </r>
       <r>    0.6224    0.0000 </r>
       <r>    0.6279    0.0000 </r>
       <r>    0.6323    0.0000 </r>
       <r>    0.7272    0.0000 </r>
       <r>    0.8417    0.0000 </r>
       <r>    0.8451    0.0000 </r>
       <r>    0.9481    0.0000 </r>
       <r>    1.0019    0.0000 </r>
       <r>    1.0291    0.0000 </r>
       <r>    1.0367    0.0000 </r>
      </set>
      <set comment="kpoint 2">
       <r>  -31.4641    1.0000 </r>
       <r>  -31.4623    1.0000 </r>
       <r>  -31.4512    1.0000 </r>
       <r>  -31.0988    1.0000 </r>
       <r>  -31.0960    1.0000 </r>
       <r>  -31.0932    1.0000 </r>
       <r>  -27.1114    1.0000 </r>
       <r>  -27.1091    1.0000 </r>
       <r>  -27.0971    1.0000 </r>
       <r>  -27.0921    1.0000 </r>
       <r>  -26.8818    1.0000 </r>
       <r>  -26.8771    1.0000 </r>
       <r>  -26.8634    1.0000 </r>
       <r>  -26.7788    1.0000 </r>
       <r>  -26.7515    1.0000 </r>
       <r>  -26.7452    1.0000 </r>
       <r>  -26.6665    1.0000 </r>
       <r>  -26.6617    1.0000 </r>
       <r>  -26.3619    1.0000 </r>
       <r>  -26.1368    1.0000 </r>
       <r>  -24.7947    1.0000 </r>
       <r>  -24.7904    1.0000 </r>
       <r>  -24.5316    1.0000 </r>
       <r>  -24.5298    1.0000 </r>
       <r>  -23.5860    1.0000 </r>
       <r>  -23.3531    1.0000 </r>
       <r>  -23.1915    1.0000 </r>
       <r>  -23.1887    1.0000 </r>
       <r>  -23.0678    1.0000 </r>
       <r>  -22.4969    1.0000 </r>
       <r>  -22.4962    1.0000 </r>
       <r>  -22.2294    1.0000 </r>
       <r>  -22.2264    1.0000 </r>
       <r>  -20.8722    1.0000 </r>
       <r>  -20.8683    1.0000 </r>
       <r>  -20.8559    1.0000 </r>
       <r>  -20.7447    1.0000 </r>
       <r>  -20.7444    1.0000 </r>
       <r>  -20.7343    1.0000 </r>
       <r>  -18.9123    1.0000 </r>
       <r>  -18.9089    1.0000 </r>
       <r>  -18.7754    1.0000 </r>
       <r>  -18.5023    1.0000 </r>
       <r>  -18.5002    1.0000 </r>
       <r>  -17.9620    1.0000 </r>
       <r>  -17.7930    1.0000 </r>
       <r>  -17.7895    1.0000 </r>
       <r>  -17.4586    1.0000 </r>
       <r>  -17.4565    1.0000 </r>
       <r>  -17.2999    1.0000 </r>
       <r>  -16.7518    1.0000 </r>
       <r>  -16.3999    1.0000 </r>
       <r>  -16.3983    1.0000 </r>
       <r>  -15.9797    1.0000 </r>
       <r>  -15.4061    1.0000 </r>
       <r>  -15.3468    1.0000 </r>
       <r>  -15.2734    1.0000 </r>
       <r>  -15.2701    1.0000 </r>
       <r>  -15.0418    1.0000 </r>
       <r>  -15.0375    1.0000 </r>
       <r>  -14.9824    1.0000 </r>
       <r>  -14.8462    1.0000 </r>
       <r>  -14.8439    1.0000 </r>
       <r>  -14.3596    1.0000 </r>
       <r>  -14.3538    1.0000 </r>
       <r>  -14.1807    1.0000 </r>
       <r>  -14.1487    1.0000 </r>
       <r>  -14.0128    1.0000 </r>
       <r>  -14.0118    1.0000 </r>
       <r>  -13.7284    1.0000 </r>
       <r>  -13.7260    1.0000 </r>
       <r>  -13.7046    1.0000 </r>
       <r>  -13.4577    1.0000 </r>
       <r>  -13.4552    1.0000 </r>
       <r>  -13.2156    1.0000 </r>
       <r>  -13.1842    1.0000 </r>
       <r>  -13.1365    1.0000 </r>
       <r>  -13.1355    1.0000 </r>
       <r>  -13.0070    1.0000 </r>
       <r>  -13.0033    1.0000 </r>
       <r>  -12.9773    1.0000 </r>
       <r>  -12.9013    1.0000 </r>
       <r>  -12.8978    1.0000 </r>
       <r>  -12.8515    1.0000 </r>
       <r>  -12.8074    1.0000 </r>
       <r>  -12.6786    1.0000 </r>
       <r>  -12.6736    1.0000 </r>
       <r>  -12.6713    1.0000 </r>
       <r>  -12.5526    1.0000 </r>
       <r>  -12.4316    1.0000 </r>
       <r>  -12.3183    1.0000 </r>
       <r>  -12.3162    1.0000 </r>
       <r>  -12.2521    1.0000 </r>
       <r>  -12.2504    1.0000 </r>
       <r>  -12.1878    1.0000 </r>
       <r>  -11.9876    1.0000 </r>
       <r>  -11.9854    1.0000 </r>
       <r>  -11.9497    1.0000 </r>
       <r>  -11.2015    1.0000 </r>
       <r>  -11.2005    1.0000 </r>
       <r>  -11.1156    1.0000 </r>
       <r>  -11.1041    1.0000 </r>
       <r>  -11.0677    1.0000 </r>
       <r>  -10.8901    1.0000 </r>
       <r>  -10.8848    1.0000 </r>
       <r>  -10.7670    1.0000 </r>
       <r>  -10.5564    1.0000 </r>
       <r>  -10.5307    1.0000 </r>
       <r>  -10.5289    1.0000 </r>
       <r>  -10.4895    1.0000 </r>
       <r>  -10.3698    1.0000 </r>
       <r>  -10.3652    1.0000 </r>
       <r>  -10.1843    1.0000 </r>
       <r>  -10.1804    1.0000 </r>
       <r>  -10.1442    1.0000 </r>
       <r>  -10.0412    1.0000 </r>
       <r>  -10.0047    1.0000 </r>
       <r>   -9.9991    1.0000 </r>
       <r>   -9.8049    1.0000 </r>
       <r>   -9.7542    1.0000 </r>
       <r>   -9.4910    1.0000 </r>
       <r>   -9.2873    1.0000 </r>
       <r>   -9.2827    1.0000 </r>
       <r>   -9.0104    1.0000 </r>
       <r>   -9.0036    1.0000 </r>
       <r>   -8.2942    1.0000 </r>
       <r>   -8.2802    1.0000 </r>
       <r>   -8.2740    1.0000 </r>
       <r>   -8.1884    1.0000 </r>
       <r>   -8.1774    1.0000 </r>
       <r>   -8.1748    1.0000 </r>
       <r>   -7.9049    1.0000 </r>
       <r>   -7.9031    1.0000 </r>
       <r>   -7.9014    1.0000 </r>
       <r>   -7.8493    1.0000 </r>
       <r>   -7.8366    1.0000 </r>
       <r>   -7.8322    1.0000 </r>
       <r>   -7.7078    1.0000 </r>
       <r>   -7.7044    1.0000 </r>
       <r>   -7.6987    1.0000 </r>
       <r>   -7.3825    1.0000 </r>
       <r>   -7.3688    1.0000 </r>
       <r>   -7.3676    1.0000 </r>
       <r>   -7.3259    1.0000 </r>
       <r>   -7.2329    1.0000 </r>
       <r>   -7.2259    1.0000 </r>
       <r>   -7.1207    1.0000 </r>
       <r>   -7.1176    1.0000 </r>
       <r>   -7.1094    1.0000 </r>
       <r>   -7.0826    1.0000 </r>
       <r>   -6.9863    1.0000 </r>
       <r>   -6.9806    1.0000 </r>
       <r>   -6.9164    1.0000 </r>
       <r>   -6.9108    1.0000 </r>
       <r>   -6.8067    1.0000 </r>
       <r>   -6.7666    1.0000 </r>
       <r>   -6.7635    1.0000 </r>
       <r>   -6.6918    1.0000 </r>
       <r>   -6.6845    1.0000 </r>
       <r>   -6.5099    1.0000 </r>
       <r>   -6.3076    1.0000 </r>
       <r>   -6.2130    1.0000 </r>
       <r>   -6.2101    1.0000 </r>
       <r>   -6.0523    1.0000 </r>
       <r>   -6.0409    1.0000 </r>
       <r>   -3.7273    0.0000 </r>
       <r>   -3.7194    0.0000 </r>
       <r>   -3.7050    0.0000 </r>
       <r>   -3.6521    0.0000 </r>
       <r>   -3.6460    0.0000 </r>
       <r>   -3.6301    0.0000 </r>
       <r>   -3.2503    0.0000 </r>
       <r>   -3.2475    0.0000 </r>
       <r>   -3.0823    0.0000 </r>
       <r>   -2.6196    0.0000 </r>
       <r>   -2.6152    0.0000 </r>
       <r>   -2.1932    0.0000 </r>
       <r>   -2.1871    0.0000 </r>
       <r>   -2.1840    0.0000 </r>
       <r>   -1.9367    0.0000 </r>
       <r>   -1.9345    0.0000 </r>
       <r>   -1.5441    0.0000 </r>
       <r>   -0.7387    0.0000 </r>
       <r>   -0.6568    0.0000 </r>
       <r>   -0.6446    0.0000 </r>
       <r>   -0.6242    0.0000 </r>
       <r>   -0.3140    0.0000 </r>
       <r>   -0.3080    0.0000 </r>
       <r>   -0.1228    0.0000 </r>
       <r>   -0.1161    0.0000 </r>
       <r>   -0.1110    0.0000 </r>
       <r>   -0.0747    0.0000 </r>
       <r>   -0.0532    0.0000 </r>
       <r>   -0.0499    0.0000 </r>
       <r>    0.2649    0.0000 </r>
       <r>    0.2843    0.0000 </r>
       <r>    0.2858    0.0000 </r>
       <r>    0.4879    0.0000 </r>
       <r>    0.6178    0.0000 </r>
       <r>    0.6264    0.0000 </r>
       <r>    0.6389    0.0000 </r>
       <r>    0.7273    0.0000 </r>
       <r>    0.8405    0.0000 </r>
       <r>    0.8446    0.0000 </r>
       <r>    0.9473    0.0000 </r>
       <r>    1.0025    0.0000 </r>
       <r>    1.0299    0.0000 </r>
       <r>    1.0374    0.0000 </r>
      </set>
      <set comment="kpoint 3">
       <r>  -31.4641    1.0000 </r>
       <r>  -31.4623    1.0000 </r>
       <r>  -31.4512    1.0000 </r>
       <r>  -31.0988    1.0000 </r>
       <r>  -31.0960    1.0000 </r>
       <r>  -31.0932    1.0000 </r>
       <r>  -27.1114    1.0000 </r>
       <r>  -27.1091    1.0000 </r>
       <r>  -27.0971    1.0000 </r>
       <r>  -27.0921    1.0000 </r>
       <r>  -26.8818    1.0000 </r>
       <r>  -26.8771    1.0000 </r>
       <r>  -26.8634    1.0000 </r>
       <r>  -26.7788    1.0000 </r>
       <r>  -26.7515    1.0000 </r>
       <r>  -26.7452    1.0000 </r>
       <r>  -26.6665    1.0000 </r>
       <r>  -26.6617    1.0000 </r>
       <r>  -26.3619    1.0000 </r>
       <r>  -26.1369    1.0000 </r>
       <r>  -24.7947    1.0000 </r>
       <r>  -24.7904    1.0000 </r>
       <r>  -24.5316    1.0000 </r>
       <r>  -24.5298    1.0000 </r>
       <r>  -23.5860    1.0000 </r>
       <r>  -23.3534    1.0000 </r>
       <r>  -23.1911    1.0000 </r>
       <r>  -23.1885    1.0000 </r>
       <r>  -23.0682    1.0000 </r>
       <r>  -22.4968    1.0000 </r>
       <r>  -22.4961    1.0000 </r>
       <r>  -22.2294    1.0000 </r>
       <r>  -22.2265    1.0000 </r>
       <r>  -20.8722    1.0000 </r>
       <r>  -20.8683    1.0000 </r>
       <r>  -20.8559    1.0000 </r>
       <r>  -20.7447    1.0000 </r>
       <r>  -20.7443    1.0000 </r>
       <r>  -20.7344    1.0000 </r>
       <r>  -18.9123    1.0000 </r>
       <r>  -18.9088    1.0000 </r>
       <r>  -18.7759    1.0000 </r>
       <r>  -18.5017    1.0000 </r>
       <r>  -18.4990    1.0000 </r>
       <r>  -17.9706    1.0000 </r>
       <r>  -17.7924    1.0000 </r>
       <r>  -17.7817    1.0000 </r>
       <r>  -17.4588    1.0000 </r>
       <r>  -17.4565    1.0000 </r>
       <r>  -17.2990    1.0000 </r>
       <r>  -16.7577    1.0000 </r>
       <r>  -16.3984    1.0000 </r>
       <r>  -16.3946    1.0000 </r>
       <r>  -15.9806    1.0000 </r>
       <r>  -15.4060    1.0000 </r>
       <r>  -15.3472    1.0000 </r>
       <r>  -15.2733    1.0000 </r>
       <r>  -15.2701    1.0000 </r>
       <r>  -15.0420    1.0000 </r>
       <r>  -15.0375    1.0000 </r>
       <r>  -14.9818    1.0000 </r>
       <r>  -14.8463    1.0000 </r>
       <r>  -14.8440    1.0000 </r>
       <r>  -14.3592    1.0000 </r>
       <r>  -14.3539    1.0000 </r>
       <r>  -14.1815    1.0000 </r>
       <r>  -14.1494    1.0000 </r>
       <r>  -14.0123    1.0000 </r>
       <r>  -14.0118    1.0000 </r>
       <r>  -13.7281    1.0000 </r>
       <r>  -13.7259    1.0000 </r>
       <r>  -13.7045    1.0000 </r>
       <r>  -13.4569    1.0000 </r>
       <r>  -13.4546    1.0000 </r>
       <r>  -13.2156    1.0000 </r>
       <r>  -13.1848    1.0000 </r>
       <r>  -13.1367    1.0000 </r>
       <r>  -13.1358    1.0000 </r>
       <r>  -13.0069    1.0000 </r>
       <r>  -13.0032    1.0000 </r>
       <r>  -12.9773    1.0000 </r>
       <r>  -12.9013    1.0000 </r>
       <r>  -12.8984    1.0000 </r>
       <r>  -12.8514    1.0000 </r>
       <r>  -12.8070    1.0000 </r>
       <r>  -12.6822    1.0000 </r>
       <r>  -12.6736    1.0000 </r>
       <r>  -12.6682    1.0000 </r>
       <r>  -12.5525    1.0000 </r>
       <r>  -12.4321    1.0000 </r>
       <r>  -12.3180    1.0000 </r>
       <r>  -12.3163    1.0000 </r>
       <r>  -12.2517    1.0000 </r>
       <r>  -12.2503    1.0000 </r>
       <r>  -12.1878    1.0000 </r>
       <r>  -11.9876    1.0000 </r>
       <r>  -11.9854    1.0000 </r>
       <r>  -11.9497    1.0000 </r>
       <r>  -11.2015    1.0000 </r>
       <r>  -11.2003    1.0000 </r>
       <r>  -11.1164    1.0000 </r>
       <r>  -11.1042    1.0000 </r>
       <r>  -11.0666    1.0000 </r>
       <r>  -10.8909    1.0000 </r>
       <r>  -10.8848    1.0000 </r>
       <r>  -10.7662    1.0000 </r>
       <r>  -10.5586    1.0000 </r>
       <r>  -10.5305    1.0000 </r>
       <r>  -10.5282    1.0000 </r>
       <r>  -10.4895    1.0000 </r>
       <r>  -10.3692    1.0000 </r>
       <r>  -10.3652    1.0000 </r>
       <r>  -10.1844    1.0000 </r>
       <r>  -10.1811    1.0000 </r>
       <r>  -10.1427    1.0000 </r>
       <r>  -10.0416    1.0000 </r>
       <r>  -10.0046    1.0000 </r>
       <r>   -9.9983    1.0000 </r>
       <r>   -9.8050    1.0000 </r>
       <r>   -9.7552    1.0000 </r>
       <r>   -9.4914    1.0000 </r>
       <r>   -9.2867    1.0000 </r>
       <r>   -9.2820    1.0000 </r>
       <r>   -9.0108    1.0000 </r>
       <r>   -9.0037    1.0000 </r>
       <r>   -8.2942    1.0000 </r>
       <r>   -8.2802    1.0000 </r>
       <r>   -8.2740    1.0000 </r>
       <r>   -8.1883    1.0000 </r>
       <r>   -8.1774    1.0000 </r>
       <r>   -8.1748    1.0000 </r>
       <r>   -7.9048    1.0000 </r>
       <r>   -7.9031    1.0000 </r>
       <r>   -7.9014    1.0000 </r>
       <r>   -7.8493    1.0000 </r>
       <r>   -7.8366    1.0000 </r>
       <r>   -7.8322    1.0000 </r>
       <r>   -7.7078    1.0000 </r>
       <r>   -7.7044    1.0000 </r>
       <r>   -7.6987    1.0000 </r>
       <r>   -7.3825    1.0000 </r>
       <r>   -7.3688    1.0000 </r>
       <r>   -7.3676    1.0000 </r>
       <r>   -7.3259    1.0000 </r>
       <r>   -7.2329    1.0000 </r>
       <r>   -7.2259    1.0000 </r>
       <r>   -7.1217    1.0000 </r>
       <r>   -7.1176    1.0000 </r>
       <r>   -7.1083    1.0000 </r>
       <r>   -7.0824    1.0000 </r>
       <r>   -6.9862    1.0000 </r>
       <r>   -6.9806    1.0000 </r>
       <r>   -6.9167    1.0000 </r>
       <r>   -6.9108    1.0000 </r>
       <r>   -6.8066    1.0000 </r>
       <r>   -6.7666    1.0000 </r>
       <r>   -6.7639    1.0000 </r>
       <r>   -6.6919    1.0000 </r>
       <r>   -6.6845    1.0000 </r>
       <r>   -6.5092    1.0000 </r>
       <r>   -6.3084    1.0000 </r>
       <r>   -6.2130    1.0000 </r>
       <r>   -6.2096    1.0000 </r>
       <r>   -6.0524    1.0000 </r>
       <r>   -6.0410    1.0000 </r>
       <r>   -3.7273    0.0000 </r>
       <r>   -3.7194    0.0000 </r>
       <r>   -3.7050    0.0000 </r>
       <r>   -3.6521    0.0000 </r>
       <r>   -3.6459    0.0000 </r>
       <r>   -3.6301    0.0000 </r>
       <r>   -3.2499    0.0000 </r>
       <r>   -3.2474    0.0000 </r>
       <r>   -3.0836    0.0000 </r>
       <r>   -2.6182    0.0000 </r>
       <r>   -2.6145    0.0000 </r>
       <r>   -2.1932    0.0000 </r>
       <r>   -2.1871    0.0000 </r>
       <r>   -2.1840    0.0000 </r>
       <r>   -1.9414    0.0000 </r>
       <r>   -1.9346    0.0000 </r>
       <r>   -1.5388    0.0000 </r>
       <r>   -0.7448    0.0000 </r>
       <r>   -0.6696    0.0000 </r>
       <r>   -0.6446    0.0000 </r>
       <r>   -0.6061    0.0000 </r>
[...]
       <r>   -32.1364     0.0000     0.0000 </r>
       <r>   -32.0171     0.0000     0.0000 </r>
       <r>   -31.8978     0.0000     0.0000 </r>
       <r>   -31.7786     0.0000     0.0000 </r>
       <r>   -31.6593     0.0000     0.0000 </r>
       <r>   -31.5400     0.0000     0.0000 </r>
       <r>   -31.4207    50.3057     6.0000 </r>
       <r>   -31.3015     0.0000     6.0000 </r>
       <r>   -31.1822     0.0000     6.0000 </r>
       <r>   -31.0629    50.3057    12.0000 </r>
       <r>   -30.9437     0.0000    12.0000 </r>
       <r>   -30.8244     0.0000    12.0000 </r>
       <r>   -30.7051     0.0000    12.0000 </r>
       <r>   -30.5859     0.0000    12.0000 </r>
       <r>   -30.4666     0.0000    12.0000 </r>
       <r>   -30.3473     0.0000    12.0000 </r>
       <r>   -30.2280     0.0000    12.0000 </r>
       <r>   -30.1088     0.0000    12.0000 </r>
       <r>   -29.9895     0.0000    12.0000 </r>
       <r>   -29.8702     0.0000    12.0000 </r>
       <r>   -29.7510     0.0000    12.0000 </r>
       <r>   -29.6317     0.0000    12.0000 </r>
       <r>   -29.5124     0.0000    12.0000 </r>
       <r>   -29.3931     0.0000    12.0000 </r>
       <r>   -29.2739     0.0000    12.0000 </r>
       <r>   -29.1546     0.0000    12.0000 </r>
       <r>   -29.0353     0.0000    12.0000 </r>
       <r>   -28.9161     0.0000    12.0000 </r>
       <r>   -28.7968     0.0000    12.0000 </r>
       <r>   -28.6775     0.0000    12.0000 </r>
       <r>   -28.5583     0.0000    12.0000 </r>
       <r>   -28.4390     0.0000    12.0000 </r>
       <r>   -28.3197     0.0000    12.0000 </r>
       <r>   -28.2004     0.0000    12.0000 </r>
       <r>   -28.0812     0.0000    12.0000 </r>
       <r>   -27.9619     0.0000    12.0000 </r>
       <r>   -27.8426     0.0000    12.0000 </r>
       <r>   -27.7234     0.0000    12.0000 </r>
       <r>   -27.6041     0.0000    12.0000 </r>
       <r>   -27.4848     0.0000    12.0000 </r>
       <r>   -27.3656     0.0000    12.0000 </r>
       <r>   -27.2463     0.0000    12.0000 </r>
       <r>   -27.1270     0.3259    12.0389 </r>
       <r>   -27.0077     0.0000    20.0000 </r>
       <r>   -26.8885     3.8690    20.4615 </r>
       <r>   -26.7692    15.4221    27.8394 </r>
       <r>   -26.6499    32.5642    35.8839 </r>
       <r>   -26.5307     0.0000    36.0000 </r>
       <r>   -26.4114     0.0000    36.0000 </r>
       <r>   -26.2921    16.7686    38.0000 </r>
       <r>   -26.1728     0.0000    38.0000 </r>
       <r>   -26.0536     0.0000    40.0000 </r>
       <r>   -25.9343     0.0000    40.0000 </r>
       <r>   -25.8150     0.0000    40.0000 </r>
       <r>   -25.6958     0.0000    40.0000 </r>
       <r>   -25.5765     0.0000    40.0000 </r>
       <r>   -25.4572     0.0000    40.0000 </r>
       <r>   -25.3380     0.0000    40.0000 </r>
       <r>   -25.2187     0.0000    40.0000 </r>
       <r>   -25.0994     0.0000    40.0000 </r>
       <r>   -24.9801     0.0000    40.0000 </r>
       <r>   -24.8609     0.0000    40.0000 </r>
       <r>   -24.7416    33.5372    44.0000 </r>
       <r>   -24.6223     0.0000    44.0000 </r>
       <r>   -24.5031    33.5355    47.9998 </r>
       <r>   -24.3838     0.0000    48.0000 </r>
       <r>   -24.2645     0.0000    48.0000 </r>
       <r>   -24.1453     0.0000    48.0000 </r>
       <r>   -24.0260     0.0000    48.0000 </r>
       <r>   -23.9067     0.0000    48.0000 </r>
       <r>   -23.7874     0.0000    48.0000 </r>
       <r>   -23.6682     0.0000    48.0000 </r>
       <r>   -23.5489    16.7686    50.0000 </r>
       <r>   -23.4296     0.0000    50.0000 </r>
       <r>   -23.3104    16.7686    52.0000 </r>
       <r>   -23.1911     8.3028    52.9903 </r>
       <r>   -23.0718    24.9353    57.8240 </r>
       <r>   -22.9525     0.0000    58.0000 </r>
       <r>   -22.8333     0.0000    58.0000 </r>
       <r>   -22.7140     0.0000    58.0000 </r>
       <r>   -22.5947     0.0000    58.0000 </r>
       <r>   -22.4755    33.3817    61.9814 </r>
       <r>   -22.3562     0.0000    62.0000 </r>
       <r>   -22.2369     4.3179    62.5150 </r>
       <r>   -22.1177     0.0000    66.0000 </r>
       <r>   -21.9984     0.0000    66.0000 </r>
       <r>   -21.8791     0.0000    66.0000 </r>
       <r>   -21.7598     0.0000    66.0000 </r>
       <r>   -21.6406     0.0000    66.0000 </r>
       <r>   -21.5213     0.0000    66.0000 </r>
       <r>   -21.4020     0.0000    66.0000 </r>
       <r>   -21.2828     0.0000    66.0000 </r>
       <r>   -21.1635     0.0000    66.0000 </r>
       <r>   -21.0442     0.0000    66.0000 </r>
       <r>   -20.9250     0.0000    66.0000 </r>
       <r>   -20.8057    50.3059    72.0000 </r>
       <r>   -20.6864    50.3059    78.0000 </r>
       <r>   -20.5671     0.0000    78.0000 </r>
       <r>   -20.4479     0.0000    78.0000 </r>
       <r>   -20.3286     0.0000    78.0000 </r>
       <r>   -20.2093     0.0000    78.0000 </r>
       <r>   -20.0901     0.0000    78.0000 </r>
       <r>   -19.9708     0.0000    78.0000 </r>
       <r>   -19.8515     0.0000    78.0000 </r>
       <r>   -19.7322     0.0000    78.0000 </r>
       <r>   -19.6130     0.0000    78.0000 </r>
       <r>   -19.4937     0.0000    78.0000 </r>
       <r>   -19.3744     0.0000    78.0000 </r>
       <r>   -19.2552     0.0000    78.0000 </r>
       <r>   -19.1359     0.0000    78.0000 </r>
       <r>   -19.0166     0.0000    78.0000 </r>
       <r>   -18.8974    31.4742    81.7539 </r>
       <r>   -18.7781    15.4893    83.8474 </r>
       <r>   -18.6588     0.0000    84.0000 </r>
       <r>   -18.5395     0.0000    84.0000 </r>
       <r>   -18.4203     3.2665    86.4396 </r>
       <r>   -18.3010    12.1003    88.0099 </r>
       <r>   -18.1817     8.7623    89.5117 </r>
       <r>   -18.0625     1.1218    89.7338 </r>
       <r>   -17.9432     1.6722    89.9994 </r>
       <r>   -17.8239     0.0001    90.0000 </r>
       <r>   -17.7047     1.5050    92.2462 </r>
       <r>   -17.5854     1.6075    92.5251 </r>
       <r>   -17.4661    18.3281    95.8527 </r>
       <r>   -17.3468     0.0000    98.0000 </r>
       <r>   -17.2276     4.2454    98.5064 </r>
       <r>   -17.1083     6.1493   100.0001 </r>
       <r>   -16.9890     9.5436   101.4716 </r>
       <r>   -16.8698     1.2397   101.6812 </r>
       <r>   -16.7505     1.9219   101.9626 </r>
       <r>   -16.6312     0.0000   102.0000 </r>
       <r>   -16.5119     0.0000   102.0000 </r>
       <r>   -16.3927    14.8320   103.7690 </r>
       <r>   -16.2734     1.4417   104.3719 </r>
       <r>   -16.1541     9.2530   105.5703 </r>
       <r>   -16.0349    12.7297   107.5183 </r>
       <r>   -15.9156     2.2358   108.0000 </r>
       <r>   -15.7963     0.0000   108.0000 </r>
       <r>   -15.6771     0.0000   108.0000 </r>
       <r>   -15.5578     0.0000   108.0000 </r>
       <r>   -15.4385     0.0000   108.0000 </r>
       <r>   -15.3192    30.0437   112.0000 </r>
       <r>   -15.2000    33.5372   116.0000 </r>
       <r>   -15.0807     0.0110   116.0013 </r>
       <r>   -14.9614    23.9136   120.8522 </r>
       <r>   -14.8422    27.7919   125.3147 </r>
       <r>   -14.7229     0.0000   126.0000 </r>
       <r>   -14.6036     0.0000   126.0000 </r>
       <r>   -14.4844     0.0000   126.0000 </r>
       <r>   -14.3651     4.2532   126.5073 </r>
       <r>   -14.2458    20.7295   131.2057 </r>
       <r>   -14.1265    19.4228   133.9999 </r>
       <r>   -14.0073    15.0171   135.7911 </r>
       <r>   -13.8880     0.0000   138.0000 </r>
       <r>   -13.7687     0.0000   138.0000 </r>
       <r>   -13.6495    50.3059   144.0000 </r>
       <r>   -13.5302     0.0000   144.0000 </r>
       <r>   -13.4109    19.7402   146.3544 </r>
       <r>   -13.2916    14.7692   148.2615 </r>
       <r>   -13.1724    21.2934   152.0063 </r>
       <r>   -13.0531     0.0000   156.0000 </r>
       <r>   -12.9338    52.4066   162.2506 </r>
       <r>   -12.8146    17.0214   168.0301 </r>
       <r>   -12.6953    15.1300   171.8046 </r>
       <r>   -12.5760    14.8144   176.0003 </r>
       <r>   -12.4568     2.3928   178.2854 </r>
       <r>   -12.3375     0.1192   180.0142 </r>
       <r>   -12.2182    30.0374   187.5826 </r>
       <r>   -12.0989     0.0000   190.0000 </r>
       <r>   -11.9797    27.5292   193.2834 </r>
       <r>   -11.8604     0.0000   196.0000 </r>
       <r>   -11.7411     0.0000   196.0000 </r>
       <r>   -11.6219     0.0000   196.0000 </r>
       <r>   -11.5026     0.0000   196.0000 </r>
       <r>   -11.3833     0.0000   196.0000 </r>
       <r>   -11.2641     0.0000   196.0000 </r>
       <r>   -11.1448    39.2639   200.6830 </r>
       <r>   -11.0255     6.0726   204.4743 </r>
       <r>   -10.9062    14.1194   207.6840 </r>
       <r>   -10.7870     0.0022   210.0003 </r>
       <r>   -10.6677    16.5197   212.2870 </r>
       <r>   -10.5484     4.4022   214.0251 </r>
       <r>   -10.4292    16.7686   220.0000 </r>
       <r>   -10.3099    33.5370   224.0000 </r>
       <r>   -10.1906    15.8862   225.8948 </r>
       <r>   -10.0713    20.4960   230.4446 </r>
       <r>    -9.9521    22.4494   234.6776 </r>
       <r>    -9.8328    11.0911   237.3228 </r>
       <r>    -9.7135    16.7686   240.0000 </r>
       <r>    -9.5943     0.0000   240.0000 </r>
       <r>    -9.4750    16.7525   241.9981 </r>
       <r>    -9.3557     0.0000   242.0000 </r>
       <r>    -9.2365    22.8743   244.7282 </r>
       <r>    -9.1172     0.0000   246.0000 </r>
       <r>    -8.9979    31.3597   249.7403 </r>
       <r>    -8.8786     0.0000   250.0000 </r>
       <r>    -8.7594     0.0000   250.0000 </r>
       <r>    -8.6401     0.0000   250.0000 </r>
       <r>    -8.5208     0.0000   250.0000 </r>
       <r>    -8.4016     0.0000   250.0000 </r>
       <r>    -8.2823    24.4733   252.9189 </r>
       <r>    -8.1630    49.3145   261.8818 </r>
       <r>    -8.0437     0.0000   262.0000 </r>
       <r>    -7.9245     0.0676   262.0081 </r>
       <r>    -7.8052    50.3036   273.9997 </r>
       <r>    -7.6859    49.6808   279.9254 </r>
       <r>    -7.5667     0.0000   280.0000 </r>
       <r>    -7.4474     0.0000   280.0000 </r>
       <r>    -7.3281    57.5337   286.8621 </r>
       <r>    -7.2089    33.3979   291.9834 </r>
       <r>    -7.0896    45.8772   297.4718 </r>
       <r>    -6.9703    27.0757   303.2293 </r>
       <r>    -6.8510    22.2184   308.0000 </r>
       <r>    -6.7318    50.3058   314.0000 </r>
       <r>    -6.6125    18.4455   318.0000 </r>
       <r>    -6.4932     2.5740   318.3070 </r>
       <r>    -6.3740     0.0145   320.0017 </r>
       <r>    -6.2547     3.3537   322.0000 </r>
       <r>    -6.1354    33.5372   326.0000 </r>
       <r>    -6.0162    33.5347   329.9997 </r>
       <r>    -5.8969     0.0000   330.0000 </r>
       <r>    -5.7776     0.0000   330.0000 </r>
       <r>    -5.6583     0.0000   330.0000 </r>
       <r>    -5.5391     0.0000   330.0000 </r>
       <r>    -5.4198     0.0000   330.0000 </r>
       <r>    -5.3005     0.0000   330.0000 </r>
       <r>    -5.1813     0.0000   330.0000 </r>
       <r>    -5.0620     0.0000   330.0000 </r>
       <r>    -4.9427     0.0000   330.0000 </r>
       <r>    -4.8234     0.0000   330.0000 </r>
       <r>    -4.7042     0.0000   330.0000 </r>
       <r>    -4.5849     0.0000   330.0000 </r>
       <r>    -4.4656     0.0000   330.0000 </r>
       <r>    -4.3464     0.0000   330.0000 </r>
       <r>    -4.2271     0.0000   330.0000 </r>
       <r>    -4.1078     0.0000   330.0000 </r>
       <r>    -3.9886     0.0000   330.0000 </r>
       <r>    -3.8693     0.0000   330.0000 </r>
       <r>    -3.7500     0.0110   330.0013 </r>
       <r>    -3.6307    59.2021   341.0611 </r>
       <r>    -3.5115     0.0000   342.0000 </r>
       <r>    -3.3922     0.0000   342.0000 </r>
       <r>    -3.2729     0.0072   342.0009 </r>
       <r>    -3.1537    24.3587   347.2553 </r>
       <r>    -3.0344     2.7948   348.0000 </r>
       <r>    -2.9151     0.0000   348.0000 </r>
       <r>    -2.7959     0.0000   348.0000 </r>
       <r>    -2.6766     0.0000   348.0000 </r>
       <r>    -2.5573    19.7849   350.3598 </r>
       <r>    -2.4380    12.5765   352.0000 </r>
       <r>    -2.3188     0.0000   352.0000 </r>
       <r>    -2.1995     7.6630   352.9140 </r>
       <r>    -2.0802    13.1351   359.5666 </r>
       <r>    -1.9610     1.4926   359.8447 </r>
       <r>    -1.8417     0.0000   362.0000 </r>
       <r>    -1.7224     0.0000   362.0000 </r>
       <r>    -1.6031     0.0000   362.0000 </r>
       <r>    -1.4839     1.9219   362.2292 </r>
       <r>    -1.3646     1.1797   362.4407 </r>
       <r>    -1.2453    10.1811   363.7476 </r>
       <r>    -1.1261     0.0000   364.0000 </r>
       <r>    -1.0068    11.6566   365.3903 </r>
       <r>    -0.8875     1.2603   365.6503 </r>
       <r>    -0.7683     1.2872   365.8535 </r>
       <r>    -0.6490    19.1983   368.2898 </r>
       <r>    -0.5297     1.3161   370.2236 </r>
       <r>    -0.4104     1.6265   370.4940 </r>
       <r>    -0.2912    33.4986   375.9954 </r>
       <r>    -0.1719    13.6199   377.6245 </r>
       <r>    -0.0526    55.3605   384.4695 </r>
       <r>     0.0666    12.0175   388.0000 </r>
       <r>     0.1859     0.0482   388.0057 </r>
       <r>     0.3052    20.9411   392.0643 </r>
       <r>     0.4244    18.9229   395.0736 </r>
       <r>     0.5437     2.7981   396.0004 </r>
       <r>     0.6630    36.5686   401.3116 </r>
       <r>     0.7823    17.0243   404.0305 </r>
       <r>     0.9015    26.8562   408.9365 </r>
       <r>     1.0208    28.7983   413.3181 </r>
       <r>     1.1401     1.2576   416.0000 </r>
       <r>     1.2593     0.0000   416.0000 </r>
       <r>     1.3786     0.0000   416.0000 </r>
       <r>     1.4979     0.0000   416.0000 </r>
       <r>     1.6172     0.0000   416.0000 </r>
       <r>     1.7364     0.0000   416.0000 </r>
       <r>     1.8557     0.0000   416.0000 </r>
       <r>     1.9750     0.0000   416.0000 </r>
       <r>     2.0942     0.0000   416.0000 </r>
       <r>     2.2135     0.0000   416.0000 </r>
       <r>     2.3328     0.0000   416.0000 </r>
       <r>     2.4520     0.0000   416.0000 </r>
       <r>     2.5713     0.0000   416.0000 </r>
       <r>     2.6906     0.0000   416.0000 </r>
      </set>
     </set>
    </array>
   </total>
  </dos>
 </calculation>
 <structure name="finalpos" >
  <crystal>
   <varray name="basis" >
    <v>      21.70342484      -0.03998801       0.00000000 </v>
    <v>     -10.88632081      18.74655024       0.00000000 </v>
    <v>       0.00000000       0.00000000      20.00000000 </v>
   </varray>
   <i name="volume">   8128.58043721 </i>
   <varray name="rec_basis" >
    <v>       0.04612503       0.02678529       0.00000000 </v>
    <v>       0.00009839       0.05340028       0.00000000 </v>
    <v>       0.00000000       0.00000000       0.05000000 </v>
   </varray>
  </crystal>
  <varray name="positions" >
   <v>       0.35513477       0.52983439       0.54190161 </v>
   <v>       0.18150410       0.64506587       0.53778078 </v>
   <v>       0.47063350       0.81968220       0.54093844 </v>
   <v>       0.63826149       0.46144852       0.43714904 </v>
   <v>       0.82928204       0.36435263       0.43018692 </v>
   <v>       0.54003150       0.17214082       0.43666713 </v>
   <v>       0.43084125       0.98487045       0.58564492 </v>
   <v>       0.51952233       0.10633015       0.54425128 </v>
   <v>       0.01541752       0.43773200       0.57785906 </v>
   <v>       0.89456821       0.40632372       0.53701667 </v>
   <v>       0.56236809       0.57353113       0.58572037 </v>
   <v>       0.59536903       0.48504347       0.54569023 </v>
   <v>       0.37377246       0.73343372       0.55563529 </v>
   <v>       0.36580979       0.62656557       0.55613224 </v>
   <v>       0.26680378       0.63403580       0.55429663 </v>
   <v>       0.63453508       0.26364801       0.43171741 </v>
   <v>       0.63485535       0.36694255       0.43329165 </v>
   <v>       0.73796633       0.36720327       0.42956949 </v>
   <v>       0.55584688       0.06702116       0.46312997 </v>
   <v>       0.50264271       0.93804472       0.45924494 </v>
   <v>       0.54843786       0.00557389       0.43270099 </v>
   <v>       0.61526638       0.14001506       0.44238517 </v>
   <v>       0.93454449       0.48530921       0.45846285 </v>
   <v>       0.06347767       0.56130270       0.45548079 </v>
   <v>       0.99621261       0.54070593       0.42931532 </v>
   <v>       0.86176192       0.47206240       0.43844656 </v>
   <v>       0.51755176       0.44528721       0.46617852 </v>
   <v>       0.44095535       0.49695074       0.46176694 </v>
   <v>       0.46247177       0.45093360       0.43611417 </v>
   <v>       0.53078578       0.38571286       0.44646991 </v>
   <v>       0.51376375       0.05904303       0.51911656 </v>
   <v>       0.46563639       0.99148644       0.54362029 </v>
   <v>       0.45983020       0.92972074       0.51516241 </v>
   <v>       0.40155699       0.85961261       0.54397392 </v>
   <v>       0.94203666       0.44895280       0.51284083 </v>
   <v>       0.00926369       0.46754828       0.53707329 </v>
   <v>       0.07129490       0.52472277       0.50988602 </v>
   <v>       0.14093354       0.53557082       0.53845443 </v>
   <v>       0.55290861       0.48931427       0.52087946 </v>
   <v>       0.53341001       0.53737162       0.54463802 </v>
   <v>       0.47636183       0.54141524       0.51662706 </v>
   <v>       0.46448042       0.59968059       0.54475322 </v>
   <v>       0.46354337       0.85860580       0.37048762 </v>
   <v>       0.58541233       0.05190358       0.32666467 </v>
   <v>       0.52485994       0.84397041       0.45066496 </v>
   <v>       0.62004704       0.97917363       0.36638834 </v>
   <v>       0.67635527       0.15194775       0.43716354 </v>
   <v>       0.14204879       0.60458223       0.36627964 </v>
   <v>       0.95081821       0.53635698       0.32372623 </v>
   <v>       0.15889397       0.67783914       0.44991532 </v>
   <v>       0.02361160       0.64213311       0.36762211 </v>
   <v>       0.84991540       0.52131198       0.43423902 </v>
   <v>       0.39826289       0.53105415       0.37140484 </v>
   <v>       0.46901134       0.41169901       0.33032878 </v>
   <v>       0.32432067       0.47403858       0.45451583 </v>
   <v>       0.36240359       0.37485628       0.37361102 </v>
   <v>       0.48135016       0.32426984       0.44305956 </v>
   <v>       0.34500336       0.85425555       0.56118998 </v>
   <v>       0.14571642       0.48350119       0.55362617 </v>
   <v>       0.51593074       0.65679058       0.56119428 </v>
   <v>       0.40904288       0.69706050       0.55677934 </v>
   <v>       0.29389347       0.59096257       0.55588325 </v>
   <v>       0.30340285       0.70601225       0.55536794 </v>
   <v>       0.39372809       0.58152496       0.55101182 </v>
   <v>       0.19390086       0.60614957       0.54671066 </v>
   <v>       0.41910946       0.80664227       0.54989997 </v>
   <v>       0.59532425       0.29601085       0.43348812 </v>
   <v>       0.70664237       0.40648675       0.43117355 </v>
   <v>       0.70530858       0.29530428       0.42901500 </v>
   <v>       0.60257440       0.40805487       0.43789162 </v>
   <v>       0.81174122       0.39994935       0.43097398 </v>
   <v>       0.59328034       0.18983252       0.43541838 </v>
   <v>       0.49660816       0.87489080       0.42367903 </v>
   <v>       0.58826761       0.01288171       0.37006330 </v>
   <v>       0.12682137       0.61957788       0.42087972 </v>
   <v>       0.98957669       0.57623849       0.36850975 </v>
   <v>       0.38291635       0.50102402       0.42617171 </v>
   <v>       0.42819717       0.40862612       0.37494072 </v>
  </varray>
 </structure>
</modeling>
