<?xml version="1.0" encoding="ISO-8859-1"?>
<modeling>
 <generator>
  <i name="program" type="string">vasp </i>
  <i name="version" type="string">5.4.4.18Apr17-6-g9f103f2a35  </i>
  <i name="subversion" type="string">(build Jun 07 2020 16:50:00) complex            parallel </i>
  <i name="platform" type="string">LinuxIFC </i>
  <i name="date" type="string">2023 02 12 </i>
  <i name="time" type="string">06:29:39 </i>
 </generator>
 <incar>
  <i type="string" name="SYSTEM">Simulation for cell shape cell volume r</i>
  <i type="int" name="ISTART">     1</i>
  <i type="string" name="PREC">high</i>
  <i type="string" name="ALGO">48</i>
  <i type="int" name="ICHARG">    11</i>
  <i type="int" name="NELM">   200</i>
  <i type="int" name="IBRION">    -1</i>
  <i name="EDIFF">      0.00001000</i>
  <i name="EDIFFG">     -0.01000000</i>
  <i type="int" name="NSW">     0</i>
  <i type="int" name="ISIF">     2</i>
  <i name="ENCUT">    500.00000000</i>
  <i name="POTIM">      0.30000000</i>
  <i type="string" name="LREAL">A</i>
  <i type="int" name="ISMEAR">     0</i>
  <i name="SIGMA">      0.01000000</i>
  <i type="int" name="NWRITE">     0</i>
  <i type="logical" name="LWAVE"> F  </i>
  <i type="logical" name="LCHARG"> F  </i>
  <v type="int" name="KPOINT_BSE">    -1     0     0     0</v>
  <i type="int" name="NELM">   200</i>
  <i type="string" name="GGA">PE</i>
 </incar>
 <structure name="primitive_cell" >
  <crystal>
   <varray name="basis" >
    <v>      53.45964065       0.03351372       0.00000000 </v>
    <v>       0.01303443      21.21907815       0.00000000 </v>
    <v>       0.00000000       0.00000000      20.00000000 </v>
   </varray>
   <i name="volume">  22687.27711485 </i>
   <varray name="rec_basis" >
    <v>       0.01870571      -0.00001149       0.00000000 </v>
    <v>      -0.00002954       0.04712742       0.00000000 </v>
    <v>       0.00000000       0.00000000       0.05000000 </v>
   </varray>
  </crystal>
  <varray name="positions" >
   <v>       0.15178679       0.32989532      -0.49889139 </v>
   <v>       0.17086606       0.36936457       0.48757903 </v>
   <v>       0.15886944       0.27027874      -0.48459072 </v>
   <v>       0.18277062       0.25043495      -0.48085780 </v>
   <v>       0.19523526       0.35302752       0.48709711 </v>
   <v>       0.13982885       0.22057617      -0.47399540 </v>
   <v>       0.16624691       0.43691574       0.47347370 </v>
   <v>       0.10893083       0.27084146       0.48146258 </v>
   <v>       0.20032611       0.29325199      -0.49580513 </v>
   <v>       0.13207436       0.44568477      -0.46980919 </v>
   <v>       0.11504163       0.22633507      -0.49667645 </v>
   <v>       0.14638922       0.47091530      -0.49792668 </v>
   <v>       0.18429265       0.46920499       0.43550099 </v>
   <v>       0.14757222       0.16351570      -0.44469434 </v>
   <v>       0.19923483       0.44244549       0.41171114 </v>
   <v>       0.16663540       0.15967398      -0.42601198 </v>
   <v>       0.22687826       0.27339477      -0.49373989 </v>
   <v>       0.09886231       0.17476551      -0.49391590 </v>
   <v>       0.14603463      -0.46325849       0.49849014 </v>
   <v>       0.24107745       0.36831126      -0.49729673 </v>
   <v>       0.21815935       0.17433595      -0.48979211 </v>
   <v>       0.18384390      -0.46577116       0.43157611 </v>
   <v>       0.13154139       0.11244333      -0.44201951 </v>
   <v>       0.07988226       0.17833451       0.48647864 </v>
   <v>       0.24610175       0.31857057      -0.49497523 </v>
   <v>       0.23314511       0.20908030      -0.49093809 </v>
   <v>       0.13150565      -0.43630792      -0.47599644 </v>
   <v>       0.10722051       0.11669202      -0.46845320 </v>
   <v>       0.16546049      -0.43098792       0.46594202 </v>
   <v>       0.19842148      -0.44056326       0.40463869 </v>
   <v>       0.13777719       0.06772066      -0.42119403 </v>
   <v>       0.25806319       0.19035135      -0.49052938 </v>
   <v>       0.27103623       0.29987506      -0.49308066 </v>
   <v>       0.09209803       0.05829931      -0.47251828 </v>
   <v>       0.16965316      -0.36233850       0.47359916 </v>
   <v>       0.27729066       0.23552456      -0.49144026 </v>
   <v>       0.26308774       0.14057947      -0.48943773 </v>
   <v>       0.28602893       0.33463344      -0.49357590 </v>
   <v>       0.06745128       0.06143254      -0.48533983 </v>
   <v>       0.19381230      -0.34531388       0.46772106 </v>
   <v>       0.15071090      -0.32262581       0.48843497 </v>
   <v>       0.10483442       0.00424983      -0.46446685 </v>
   <v>       0.23944047      -0.36013759       0.47189676 </v>
   <v>       0.02523030       0.10661261      -0.49322911 </v>
   <v>       0.13861764      -0.06066682      -0.43097760 </v>
   <v>       0.30378715       0.21509206      -0.49165113 </v>
   <v>       0.19904606      -0.28498519       0.48164621 </v>
   <v>       0.05576651       0.00519718      -0.48960674 </v>
   <v>       0.15788293      -0.26250160       0.49947778 </v>
   <v>       0.09204372      -0.04919317      -0.47538187 </v>
   <v>       0.10723755      -0.26135406       0.47188777 </v>
   <v>       0.24461652      -0.31057620       0.47488330 </v>
   <v>       0.30855923       0.15446734       0.49424731 </v>
   <v>       0.32155519       0.25790848      -0.47857385 </v>
   <v>       0.18172844      -0.24208286       0.49835179 </v>
   <v>       0.01481711       0.06252398      -0.49427974 </v>
   <v>       0.06737325      -0.05129199      -0.48790393 </v>
   <v>       0.13183955      -0.10484304      -0.45180331 </v>
   <v>       0.22554548      -0.26510543       0.47952951 </v>
   <v>       0.02815431       0.00535067      -0.49468411 </v>
   <v>       0.10704110      -0.10798890      -0.47499097 </v>
   <v>       0.13911897      -0.21262945      -0.48696726 </v>
   <v>       0.11392516      -0.21736026       0.49362457 </v>
   <v>       0.30358242       0.06549611       0.42127384 </v>
   <v>       0.33858822       0.34788864      -0.42234516 </v>
   <v>       0.28445437      -0.32739588       0.47229496 </v>
   <v>       0.26956792      -0.29238841       0.47503405 </v>
   <v>       0.16702387      -0.15322875      -0.44168496 </v>
   <v>       0.14761193      -0.15624780      -0.45775549 </v>
   <v>      -0.01116768       0.06248971      -0.49356225 </v>
   <v>      -0.02162494       0.10655696      -0.49200264 </v>
   <v>       0.33280416       0.13718440       0.49519651 </v>
   <v>       0.34533295       0.23666974      -0.48050297 </v>
   <v>       0.23195321      -0.20097263       0.48321376 </v>
   <v>       0.09802569      -0.16534990       0.49941696 </v>
   <v>       0.31839321       0.03791012       0.44454768 </v>
   <v>       0.01487618      -0.05182242      -0.49629739 </v>
   <v>       0.35746616       0.34326479      -0.44216592 </v>
   <v>       0.21704506      -0.16605991       0.48671330 </v>
   <v>       0.35208637       0.17634610      -0.49231726 </v>
   <v>       0.07870245      -0.16804714       0.48223617 </v>
   <v>       0.02533986      -0.09589995      -0.49688394 </v>
   <v>       0.33686032       0.06919177       0.48203474 </v>
   <v>       0.36471762       0.28567554      -0.47112937 </v>
   <v>       0.26207773      -0.13312848       0.48514233 </v>
   <v>       0.27599742      -0.22827318       0.47883254 </v>
   <v>       0.30343252      -0.05135221       0.41352492 </v>
   <v>      -0.02443126       0.00528678      -0.49314211 </v>
   <v>       0.31830906      -0.02705940       0.44023726 </v>
   <v>       0.25691358      -0.18272306       0.48238939 </v>
   <v>       0.33330816      -0.35378663      -0.49013928 </v>
   <v>       0.36786105       0.43910230      -0.42094509 </v>
   <v>      -0.01110321      -0.05185420      -0.49547028 </v>
   <v>       0.37372583       0.39390789      -0.44142477 </v>
   <v>       0.36242796      -0.44486148      -0.48104748 </v>
   <v>      -0.07536480       0.17778013       0.48646451 </v>
   <v>       0.35650199       0.03400761      -0.48992806 </v>
   <v>       0.31997917      -0.25359198       0.48892664 </v>
   <v>       0.30258299      -0.20895357       0.48016236 </v>
   <v>       0.38930750       0.27878879      -0.49495658 </v>
   <v>       0.35343549      -0.34665987      -0.49201411 </v>
   <v>      -0.06367011       0.06158509      -0.48375990 </v>
   <v>      -0.05200837       0.00521277      -0.48689781 </v>
   <v>       0.33663679      -0.06298653       0.47343781 </v>
   <v>      -0.02151275      -0.09595242      -0.49536076 </v>
   <v>       0.36960558      -0.39722636      -0.48690113 </v>
   <v>       0.37112197       0.05831113      -0.46201421 </v>
   <v>       0.30786009      -0.14762453       0.47322395 </v>
   <v>       0.39502769       0.23377836       0.48359564 </v>
   <v>       0.39774995       0.38867864      -0.46963124 </v>
   <v>       0.35637384      -0.03183695      -0.49413373 </v>
   <v>       0.40572285       0.32997226      -0.49421711 </v>
   <v>      -0.09462631       0.17490956      -0.49591036 </v>
   <v>       0.39926930      -0.49935807      -0.47390661 </v>
   <v>       0.33219181      -0.13180783       0.47809582 </v>
   <v>      -0.10415846       0.27065014       0.47633862 </v>
   <v>       0.34388464      -0.23384783       0.49191177 </v>
   <v>       0.36260308      -0.28504986       0.49951661 </v>
   <v>      -0.06360598      -0.05117869      -0.48348384 </v>
   <v>      -0.08832289       0.05896086      -0.47104389 </v>
   <v>       0.41261988       0.44720778      -0.47702774 </v>
   <v>      -0.11066418       0.22661957       0.49839099 </v>
   <v>       0.37087400      -0.05957081      -0.46946054 </v>
   <v>       0.39564913      -0.38836220      -0.49011628 </v>
   <v>      -0.10344441       0.11751695      -0.46995241 </v>
   <v>       0.42448727       0.32560076       0.48489432 </v>
   <v>       0.41158532      -0.44552999      -0.48627192 </v>
   <v>       0.35110426      -0.17291970       0.48808866 </v>
   <v>      -0.08823010      -0.04855243      -0.47023145 </v>
   <v>      -0.12803917       0.44497684      -0.47214851 </v>
   <v>       0.38862982      -0.27565476       0.49703885 </v>
   <v>      -0.10102811       0.00523511      -0.46098336 </v>
   <v>       0.40500328      -0.32687944      -0.49800792 </v>
   <v>       0.43740663       0.44503624      -0.48783207 </v>
   <v>      -0.13578999       0.22149933      -0.48174347 </v>
   <v>      -0.12817017       0.11400814      -0.44627312 </v>
   <v>      -0.12799380      -0.43691658      -0.46927825 </v>
   <v>       0.43642691      -0.44221715      -0.49592247 </v>
   <v>      -0.14742611       0.33122373       0.49353201 </v>
   <v>      -0.14236556       0.47175749      -0.49866117 </v>
   <v>       0.39582902      -0.22798747       0.49060470 </v>
   <v>      -0.07557932      -0.16819068       0.48817037 </v>
   <v>      -0.10441923      -0.26096660       0.48119135 </v>
   <v>      -0.14409740       0.16512347      -0.45217139 </v>
   <v>       0.44854697      -0.49812881      -0.49428604 </v>
   <v>      -0.14235260      -0.46233851      -0.49704421 </v>
   <v>      -0.13476558       0.06977728      -0.42515502 </v>
   <v>       0.42517672      -0.31971639       0.49948675 </v>
   <v>      -0.15460851       0.27113980      -0.49532536 </v>
   <v>      -0.10327131      -0.10716180      -0.46735343 </v>
   <v>      -0.09467480      -0.16495731      -0.49298598 </v>
   <v>      -0.16189993       0.43931306       0.46945215 </v>
   <v>      -0.11074071      -0.21668897      -0.49685211 </v>
   <v>      -0.16632751       0.37092429       0.47848590 </v>
   <v>      -0.16346322       0.16185495      -0.43574883 </v>
   <v>      -0.13421406      -0.05887069      -0.42109212 </v>
   <v>      -0.16190663      -0.42839799       0.47282667 </v>
   <v>       0.47958539       0.40167336      -0.49424784 </v>
   <v>      -0.12776212      -0.10337999      -0.44196480 </v>
   <v>      -0.14739828      -0.32091118       0.49959986 </v>
   <v>       0.47618104      -0.49725398      -0.49862019 </v>
   <v>      -0.17843915       0.25068951      -0.49656133 </v>
   <v>      -0.18000169       0.47377575       0.43372902 </v>
   <v>      -0.13566993      -0.21137370      -0.47520261 </v>
   <v>      -0.16637805      -0.36044765       0.48519545 </v>
   <v>       0.48979351       0.44600725      -0.49662020 </v>
   <v>      -0.19053360       0.35406968       0.47313262 </v>
   <v>      -0.18002329      -0.46111127       0.43546985 </v>
   <v>       0.47854983      -0.39603227       0.49612630 </v>
   <v>      -0.15458355      -0.26117968      -0.48690656 </v>
   <v>      -0.19575364       0.29373344       0.48705545 </v>
   <v>       0.48920472      -0.43978286       0.49812896 </v>
   <v>      -0.19467927       0.44838386       0.40736986 </v>
   <v>      -0.14368891      -0.15459599      -0.44579030 </v>
   <v>      -0.19473643      -0.43447861       0.41056053 </v>
   <v>      -0.19069660      -0.34387443       0.48277698 </v>
   <v>      -0.48422986       0.44677887      -0.49627319 </v>
   <v>      -0.16286939      -0.15109554      -0.42790503 </v>
   <v>      -0.21346119       0.17470022       0.48926819 </v>
   <v>      -0.17850566      -0.24125283      -0.48462303 </v>
   <v>      -0.22223121       0.27375872       0.48522741 </v>
   <v>      -0.48480296      -0.43899761       0.49886950 </v>
   <v>      -0.47358510       0.40304309      -0.49373986 </v>
   <v>      -0.19591524      -0.28410909       0.49945280 </v>
   <v>      -0.22846222       0.20945283       0.48724662 </v>
   <v>      -0.47120153      -0.49568326      -0.49753700 </v>
   <v>      -0.23632511       0.36881602       0.48076419 </v>
   <v>      -0.47460592      -0.39459324       0.49775267 </v>
   <v>      -0.24139544       0.31912683       0.48261391 </v>
   <v>      -0.23643863      -0.35961227       0.49732567 </v>
   <v>      -0.22247156      -0.26446214      -0.49971882 </v>
   <v>      -0.25337165       0.19088635       0.48666553 </v>
   <v>      -0.44360332      -0.49493825      -0.49172447 </v>
   <v>      -0.21388188      -0.16532578      -0.49646340 </v>
   <v>      -0.25844637       0.14118019       0.48793686 </v>
   <v>      -0.26631047       0.30060123       0.48335541 </v>
   <v>      -0.24157973      -0.30992593       0.49901250 </v>
   <v>      -0.43172276       0.44890591      -0.48965306 </v>
   <v>      -0.22882045      -0.20019170      -0.49769699 </v>
   <v>      -0.27253417       0.23630157       0.48538057 </v>
   <v>      -0.43224000      -0.43828339      -0.48735582 </v>
   <v>      -0.42001771       0.33113105       0.48484920 </v>
   <v>      -0.28131978       0.33537944       0.48233840 </v>
   <v>      -0.40703925       0.45184017      -0.47747997 </v>
   <v>      -0.26654023      -0.29151668      -0.49965583 </v>
   <v>      -0.40056486       0.33512370      -0.49935609 </v>
   <v>      -0.25376440      -0.18175646      -0.49792849 </v>
   <v>      -0.25890893      -0.13205489      -0.49731951 </v>
   <v>      -0.40755947      -0.44064051      -0.47465291 </v>
   <v>      -0.41974308      -0.32052454       0.48372224 </v>
   <v>      -0.29901983       0.21643840       0.48707442 </v>
   <v>      -0.28148282      -0.32640913      -0.49999240 </v>
   <v>      -0.39167734       0.39363782      -0.47655466 </v>
   <v>      -0.39105464       0.23847241       0.47663488 </v>
   <v>      -0.39449890      -0.49424947      -0.46720075 </v>
   <v>      -0.27287565      -0.22721997      -0.49860999 </v>
   <v>      -0.30415494       0.15563669       0.47554710 </v>
   <v>      -0.38442441       0.28347817       0.49603535 </v>
   <v>      -0.29970901       0.06108378       0.41108180 </v>
   <v>      -0.40088157      -0.32401329      -0.49584613 </v>
   <v>      -0.31643119       0.26003004      -0.49927942 </v>
   <v>      -0.39264220      -0.38197312      -0.46988294 </v>
   <v>      -0.29970057      -0.05603028       0.41501657 </v>
   <v>      -0.31451572       0.03587082       0.43711061 </v>
   <v>      -0.36667592       0.39848593      -0.45529964 </v>
   <v>      -0.33115314       0.35171062      -0.44528491 </v>
   <v>      -0.32841641       0.13907027       0.47998102 </v>
   <v>      -0.29938101      -0.20711832      -0.49867859 </v>
   <v>      -0.31451056      -0.02921128       0.43928898 </v>
   <v>      -0.35911567       0.28968099      -0.48613649 </v>
   <v>      -0.38466857      -0.27247515      -0.49823765 </v>
   <v>      -0.39063917      -0.22805809       0.47941734 </v>
   <v>      -0.35997676       0.44363561      -0.43679931 </v>
   <v>      -0.36695007       0.06530512      -0.47081576 </v>
   <v>      -0.36848811      -0.38609196      -0.44231307 </v>
   <v>      -0.34027121       0.23960583      -0.49778930 </v>
   <v>      -0.30431721      -0.14683484       0.48616473 </v>
   <v>      -0.33280158       0.07056995       0.47189322 </v>
   <v>      -0.36238917      -0.43069291      -0.42091023 </v>
   <v>      -0.31698577      -0.24987048      -0.48395431 </v>
   <v>      -0.35067120       0.34744797      -0.46005967 </v>
   <v>      -0.34739785       0.17917076       0.49299742 </v>
   <v>      -0.33343623      -0.33895210      -0.42542378 </v>
   <v>      -0.36700326      -0.05279305      -0.46711075 </v>
   <v>      -0.35248707       0.03837104      -0.49661093 </v>
   <v>      -0.33282551      -0.06164676       0.47619635 </v>
   <v>      -0.35998464      -0.27827718      -0.47481150 </v>
   <v>      -0.35241059      -0.33513238      -0.44477664 </v>
   <v>      -0.32856323      -0.12967163       0.48841373 </v>
   <v>      -0.35250829      -0.02752423      -0.49451615 </v>
   <v>      -0.34080438      -0.22900107      -0.48556733 </v>
   <v>      -0.34771151      -0.16886567      -0.49784607 </v>
  </varray>
 </structure>
 <varray name="primitive_index" >
  <v type="int" >        1 </v>
  <v type="int" >      109 </v>
  <v type="int" >      110 </v>
  <v type="int" >        2 </v>
  <v type="int" >        3 </v>
  <v type="int" >      212 </v>
  <v type="int" >      147 </v>
  <v type="int" >       82 </v>
  <v type="int" >      111 </v>
  <v type="int" >       37 </v>
  <v type="int" >      209 </v>
  <v type="int" >      146 </v>
  <v type="int" >      201 </v>
  <v type="int" >      162 </v>
  <v type="int" >       73 </v>
  <v type="int" >       46 </v>
  <v type="int" >      187 </v>
  <v type="int" >      210 </v>
  <v type="int" >      145 </v>
  <v type="int" >       97 </v>
  <v type="int" >       61 </v>
  <v type="int" >      202 </v>
  <v type="int" >      161 </v>
  <v type="int" >       81 </v>
  <v type="int" >      233 </v>
  <v type="int" >      186 </v>
  <v type="int" >       38 </v>
  <v type="int" >      211 </v>
  <v type="int" >      148 </v>
  <v type="int" >       74 </v>
  <v type="int" >       45 </v>
  <v type="int" >      185 </v>
  <v type="int" >      234 </v>
  <v type="int" >      133 </v>
  <v type="int" >      115 </v>
  <v type="int" >      188 </v>
  <v type="int" >       62 </v>
  <v type="int" >       98 </v>
  <v type="int" >       25 </v>
  <v type="int" >        9 </v>
  <v type="int" >        7 </v>
  <v type="int" >       27 </v>
  <v type="int" >      101 </v>
  <v type="int" >       69 </v>
  <v type="int" >       85 </v>
  <v type="int" >      126 </v>
  <v type="int" >      117 </v>
  <v type="int" >      134 </v>
  <v type="int" >      116 </v>
  <v type="int" >      135 </v>
  <v type="int" >       50 </v>
  <v type="int" >      238 </v>
  <v type="int" >       18 </v>
  <v type="int" >       17 </v>
  <v type="int" >        8 </v>
  <v type="int" >      197 </v>
  <v type="int" >       26 </v>
  <v type="int" >      217 </v>
  <v type="int" >      239 </v>
  <v type="int" >      247 </v>
  <v type="int" >      167 </v>
  <v type="int" >      168 </v>
  <v type="int" >      165 </v>
  <v type="int" >       79 </v>
  <v type="int" >       56 </v>
  <v type="int" >      102 </v>
  <v type="int" >      237 </v>
  <v type="int" >       86 </v>
  <v type="int" >      218 </v>
  <v type="int" >      198 </v>
  <v type="int" >       70 </v>
  <v type="int" >      124 </v>
  <v type="int" >      125 </v>
  <v type="int" >      193 </v>
  <v type="int" >      166 </v>
  <v type="int" >      207 </v>
  <v type="int" >      246 </v>
  <v type="int" >      176 </v>
  <v type="int" >       65 </v>
  <v type="int" >       16 </v>
  <v type="int" >       49 </v>
  <v type="int" >      105 </v>
  <v type="int" >      159 </v>
  <v type="int" >      228 </v>
  <v type="int" >       66 </v>
  <v type="int" >      240 </v>
  <v type="int" >       80 </v>
  <v type="int" >      248 </v>
  <v type="int" >      208 </v>
  <v type="int" >      194 </v>
  <v type="int" >       96 </v>
  <v type="int" >       55 </v>
  <v type="int" >      245 </v>
  <v type="int" >      175 </v>
  <v type="int" >       95 </v>
  <v type="int" >       51 </v>
  <v type="int" >      158 </v>
  <v type="int" >       23 </v>
  <v type="int" >      132 </v>
  <v type="int" >      225 </v>
  <v type="int" >      232 </v>
  <v type="int" >       29 </v>
  <v type="int" >      137 </v>
  <v type="int" >      160 </v>
  <v type="int" >      106 </v>
  <v type="int" >      231 </v>
  <v type="int" >       43 </v>
  <v type="int" >       24 </v>
  <v type="int" >       92 </v>
  <v type="int" >      227 </v>
  <v type="int" >      157 </v>
  <v type="int" >      226 </v>
  <v type="int" >      170 </v>
  <v type="int" >       36 </v>
  <v type="int" >      130 </v>
  <v type="int" >       52 </v>
  <v type="int" >      131 </v>
  <v type="int" >      184 </v>
  <v type="int" >       28 </v>
  <v type="int" >      138 </v>
  <v type="int" >      142 </v>
  <v type="int" >      169 </v>
  <v type="int" >       44 </v>
  <v type="int" >      183 </v>
  <v type="int" >      171 </v>
  <v type="int" >       91 </v>
  <v type="int" >      144 </v>
  <v type="int" >       22 </v>
  <v type="int" >      136 </v>
  <v type="int" >       40 </v>
  <v type="int" >      181 </v>
  <v type="int" >       30 </v>
  <v type="int" >      182 </v>
  <v type="int" >       34 </v>
  <v type="int" >      172 </v>
  <v type="int" >      219 </v>
  <v type="int" >       39 </v>
  <v type="int" >       35 </v>
  <v type="int" >       10 </v>
  <v type="int" >      149 </v>
  <v type="int" >       60 </v>
  <v type="int" >       83 </v>
  <v type="int" >       84 </v>
  <v type="int" >      220 </v>
  <v type="int" >      143 </v>
  <v type="int" >      150 </v>
  <v type="int" >       87 </v>
  <v type="int" >       59 </v>
  <v type="int" >      119 </v>
  <v type="int" >      215 </v>
  <v type="int" >      214 </v>
  <v type="int" >      152 </v>
  <v type="int" >      213 </v>
  <v type="int" >      118 </v>
  <v type="int" >       88 </v>
  <v type="int" >       47 </v>
  <v type="int" >      151 </v>
  <v type="int" >       72 </v>
  <v type="int" >      163 </v>
  <v type="int" >        4 </v>
  <v type="int" >      252 </v>
  <v type="int" >       11 </v>
  <v type="int" >      204 </v>
  <v type="int" >      216 </v>
  <v type="int" >      112 </v>
  <v type="int" >      200 </v>
  <v type="int" >       12 </v>
  <v type="int" >      203 </v>
  <v type="int" >      108 </v>
  <v type="int" >      113 </v>
  <v type="int" >      120 </v>
  <v type="int" >      249 </v>
  <v type="int" >       76 </v>
  <v type="int" >      164 </v>
  <v type="int" >       75 </v>
  <v type="int" >        6 </v>
  <v type="int" >      199 </v>
  <v type="int" >       48 </v>
  <v type="int" >       67 </v>
  <v type="int" >        5 </v>
  <v type="int" >      243 </v>
  <v type="int" >      250 </v>
  <v type="int" >       71 </v>
  <v type="int" >      114 </v>
  <v type="int" >      195 </v>
  <v type="int" >      251 </v>
  <v type="int" >      103 </v>
  <v type="int" >      107 </v>
  <v type="int" >      242 </v>
  <v type="int" >       99 </v>
  <v type="int" >      191 </v>
  <v type="int" >      196 </v>
  <v type="int" >      140 </v>
  <v type="int" >       63 </v>
  <v type="int" >       68 </v>
  <v type="int" >      241 </v>
  <v type="int" >      235 </v>
  <v type="int" >       32 </v>
  <v type="int" >      190 </v>
  <v type="int" >      244 </v>
  <v type="int" >       31 </v>
  <v type="int" >       57 </v>
  <v type="int" >      104 </v>
  <v type="int" >      141 </v>
  <v type="int" >      236 </v>
  <v type="int" >      178 </v>
  <v type="int" >      189 </v>
  <v type="int" >       64 </v>
  <v type="int" >      139 </v>
  <v type="int" >       89 </v>
  <v type="int" >      129 </v>
  <v type="int" >      100 </v>
  <v type="int" >      179 </v>
  <v type="int" >       58 </v>
  <v type="int" >       33 </v>
  <v type="int" >      192 </v>
  <v type="int" >       21 </v>
  <v type="int" >      177 </v>
  <v type="int" >       78 </v>
  <v type="int" >      222 </v>
  <v type="int" >       20 </v>
  <v type="int" >      223 </v>
  <v type="int" >       77 </v>
  <v type="int" >      206 </v>
  <v type="int" >      229 </v>
  <v type="int" >       94 </v>
  <v type="int" >      127 </v>
  <v type="int" >      123 </v>
  <v type="int" >      205 </v>
  <v type="int" >      180 </v>
  <v type="int" >      221 </v>
  <v type="int" >       90 </v>
  <v type="int" >       93 </v>
  <v type="int" >       42 </v>
  <v type="int" >      173 </v>
  <v type="int" >      128 </v>
  <v type="int" >       15 </v>
  <v type="int" >      156 </v>
  <v type="int" >       53 </v>
  <v type="int" >       14 </v>
  <v type="int" >      230 </v>
  <v type="int" >       19 </v>
  <v type="int" >       54 </v>
  <v type="int" >       41 </v>
  <v type="int" >      153 </v>
  <v type="int" >      155 </v>
  <v type="int" >      224 </v>
  <v type="int" >      174 </v>
  <v type="int" >      121 </v>
  <v type="int" >      154 </v>
  <v type="int" >      122 </v>
  <v type="int" >       13 </v>
 </varray>
 <kpoints>
  <generation param="listgenerated">
   <i name="divisions" type="int">      20 </i>
   <v>       0.00000000       0.00000000       0.00000000 </v>
   <v>       0.50000000       0.00000000       0.00000000 </v>
   <v>       0.50000000       0.50000000       0.00000000 </v>
   <v>       0.00000000       0.50000000       0.00000000 </v>
   <v>       0.00000000       0.00000000       0.00000000 </v>
  </generation>
  <varray name="kpointlist" >
   <v>       0.00000000       0.00000000       0.00000000 </v>
   <v>       0.02631579       0.00000000       0.00000000 </v>
   <v>       0.05263158       0.00000000       0.00000000 </v>
   <v>       0.07894737       0.00000000       0.00000000 </v>
   <v>       0.10526316       0.00000000       0.00000000 </v>
   <v>       0.13157895       0.00000000       0.00000000 </v>
   <v>       0.15789474       0.00000000       0.00000000 </v>
   <v>       0.18421053       0.00000000       0.00000000 </v>
   <v>       0.21052632       0.00000000       0.00000000 </v>
   <v>       0.23684211       0.00000000       0.00000000 </v>
   <v>       0.26315789       0.00000000       0.00000000 </v>
   <v>       0.28947368       0.00000000       0.00000000 </v>
   <v>       0.31578947       0.00000000       0.00000000 </v>
   <v>       0.34210526       0.00000000       0.00000000 </v>
   <v>       0.36842105       0.00000000       0.00000000 </v>
   <v>       0.39473684       0.00000000       0.00000000 </v>
   <v>       0.42105263       0.00000000       0.00000000 </v>
   <v>       0.44736842       0.00000000       0.00000000 </v>
   <v>       0.47368421       0.00000000       0.00000000 </v>
   <v>       0.50000000       0.00000000       0.00000000 </v>
   <v>       0.50000000       0.00000000       0.00000000 </v>
   <v>       0.50000000       0.02631579       0.00000000 </v>
   <v>       0.50000000       0.05263158       0.00000000 </v>
   <v>       0.50000000       0.07894737       0.00000000 </v>
   <v>       0.50000000       0.10526316       0.00000000 </v>
   <v>       0.50000000       0.13157895       0.00000000 </v>
   <v>       0.50000000       0.15789474       0.00000000 </v>
   <v>       0.50000000       0.18421053       0.00000000 </v>
   <v>       0.50000000       0.21052632       0.00000000 </v>
   <v>       0.50000000       0.23684211       0.00000000 </v>
   <v>       0.50000000       0.26315789       0.00000000 </v>
   <v>       0.50000000       0.28947368       0.00000000 </v>
   <v>       0.50000000       0.31578947       0.00000000 </v>
   <v>       0.50000000       0.34210526       0.00000000 </v>
   <v>       0.50000000       0.36842105       0.00000000 </v>
   <v>       0.50000000       0.39473684       0.00000000 </v>
   <v>       0.50000000       0.42105263       0.00000000 </v>
   <v>       0.50000000       0.44736842       0.00000000 </v>
   <v>       0.50000000       0.47368421       0.00000000 </v>
   <v>       0.50000000       0.50000000       0.00000000 </v>
   <v>       0.50000000       0.50000000       0.00000000 </v>
   <v>       0.47368421       0.50000000       0.00000000 </v>
   <v>       0.44736842       0.50000000       0.00000000 </v>
   <v>       0.42105263       0.50000000       0.00000000 </v>
   <v>       0.39473684       0.50000000       0.00000000 </v>
   <v>       0.36842105       0.50000000       0.00000000 </v>
   <v>       0.34210526       0.50000000       0.00000000 </v>
   <v>       0.31578947       0.50000000       0.00000000 </v>
   <v>       0.28947368       0.50000000       0.00000000 </v>
   <v>       0.26315789       0.50000000       0.00000000 </v>
   <v>       0.23684211       0.50000000       0.00000000 </v>
   <v>       0.21052632       0.50000000       0.00000000 </v>
   <v>       0.18421053       0.50000000       0.00000000 </v>
   <v>       0.15789474       0.50000000       0.00000000 </v>
   <v>       0.13157895       0.50000000       0.00000000 </v>
   <v>       0.10526316       0.50000000       0.00000000 </v>
   <v>       0.07894737       0.50000000       0.00000000 </v>
   <v>       0.05263158       0.50000000       0.00000000 </v>
   <v>       0.02631579       0.50000000       0.00000000 </v>
   <v>       0.00000000       0.50000000       0.00000000 </v>
   <v>       0.00000000       0.50000000       0.00000000 </v>
   <v>       0.00000000       0.47368421       0.00000000 </v>
   <v>       0.00000000       0.44736842       0.00000000 </v>
   <v>       0.00000000       0.42105263       0.00000000 </v>
   <v>       0.00000000       0.39473684       0.00000000 </v>
   <v>       0.00000000       0.36842105       0.00000000 </v>
   <v>       0.00000000       0.34210526       0.00000000 </v>
   <v>       0.00000000       0.31578947       0.00000000 </v>
   <v>       0.00000000       0.28947368       0.00000000 </v>
   <v>       0.00000000       0.26315789       0.00000000 </v>
   <v>       0.00000000       0.23684211       0.00000000 </v>
   <v>       0.00000000       0.21052632       0.00000000 </v>
   <v>       0.00000000       0.18421053       0.00000000 </v>
   <v>       0.00000000       0.15789474       0.00000000 </v>
   <v>       0.00000000       0.13157895       0.00000000 </v>
   <v>       0.00000000       0.10526316       0.00000000 </v>
   <v>       0.00000000       0.07894737       0.00000000 </v>
   <v>       0.00000000       0.05263158       0.00000000 </v>
   <v>       0.00000000       0.02631579       0.00000000 </v>
   <v>       0.00000000       0.00000000       0.00000000 </v>
  </varray>
  <varray name="weights" >
   <v>       0.01250000 </v>
   <v>       0.01250000 </v>
   <v>       0.01250000 </v>
   <v>       0.01250000 </v>
   <v>       0.01250000 </v>
   <v>       0.01250000 </v>
   <v>       0.01250000 </v>
   <v>       0.01250000 </v>
   <v>       0.01250000 </v>
   <v>       0.01250000 </v>
   <v>       0.01250000 </v>
   <v>       0.01250000 </v>
   <v>       0.01250000 </v>
   <v>       0.01250000 </v>
   <v>       0.01250000 </v>
   <v>       0.01250000 </v>
   <v>       0.01250000 </v>
   <v>       0.01250000 </v>
   <v>       0.01250000 </v>
   <v>       0.01250000 </v>
   <v>       0.01250000 </v>
   <v>       0.01250000 </v>
   <v>       0.01250000 </v>
   <v>       0.01250000 </v>
   <v>       0.01250000 </v>
   <v>       0.01250000 </v>
   <v>       0.01250000 </v>
   <v>       0.01250000 </v>
   <v>       0.01250000 </v>
   <v>       0.01250000 </v>
   <v>       0.01250000 </v>
   <v>       0.01250000 </v>
   <v>       0.01250000 </v>
   <v>       0.01250000 </v>
   <v>       0.01250000 </v>
   <v>       0.01250000 </v>
   <v>       0.01250000 </v>
   <v>       0.01250000 </v>
   <v>       0.01250000 </v>
   <v>       0.01250000 </v>
   <v>       0.01250000 </v>
   <v>       0.01250000 </v>
   <v>       0.01250000 </v>
   <v>       0.01250000 </v>
   <v>       0.01250000 </v>
   <v>       0.01250000 </v>
   <v>       0.01250000 </v>
   <v>       0.01250000 </v>
   <v>       0.01250000 </v>
   <v>       0.01250000 </v>
   <v>       0.01250000 </v>
   <v>       0.01250000 </v>
   <v>       0.01250000 </v>
   <v>       0.01250000 </v>
   <v>       0.01250000 </v>
   <v>       0.01250000 </v>
   <v>       0.01250000 </v>
   <v>       0.01250000 </v>
   <v>       0.01250000 </v>
   <v>       0.01250000 </v>
   <v>       0.01250000 </v>
   <v>       0.01250000 </v>
   <v>       0.01250000 </v>
   <v>       0.01250000 </v>
   <v>       0.01250000 </v>
   <v>       0.01250000 </v>
   <v>       0.01250000 </v>
   <v>       0.01250000 </v>
   <v>       0.01250000 </v>
   <v>       0.01250000 </v>
   <v>       0.01250000 </v>
   <v>       0.01250000 </v>
   <v>       0.01250000 </v>
   <v>       0.01250000 </v>
   <v>       0.01250000 </v>
   <v>       0.01250000 </v>
   <v>       0.01250000 </v>
   <v>       0.01250000 </v>
   <v>       0.01250000 </v>
   <v>       0.01250000 </v>
  </varray>
 </kpoints>
 <parameters>
  <separator name="general" >
   <i type="string" name="SYSTEM">Simulation for cell shape cell volume r</i>
   <i type="logical" name="LCOMPAT"> F  </i>
  </separator>
  <separator name="electronic" >
   <i type="string" name="PREC">high</i>
   <i name="ENMAX">    500.00000000</i>
   <i name="ENAUG">    644.87300000</i>
   <i name="EDIFF">      0.00001000</i>
   <i type="int" name="IALGO">    38</i>
   <i type="int" name="IWAVPR">    10</i>
   <i type="int" name="NBANDS">   544</i>
   <i name="NELECT">    828.00000000</i>
   <i type="int" name="TURBO">     0</i>
   <i type="int" name="IRESTART">     0</i>
   <i type="int" name="NREBOOT">     0</i>
   <i type="int" name="NMIN">     0</i>
   <i name="EREF">      0.00000000</i>
   <separator name="electronic smearing" >
    <i type="int" name="ISMEAR">     0</i>
    <i name="SIGMA">      0.01000000</i>
    <i name="KSPACING">      0.50000000</i>
    <i type="logical" name="KGAMMA"> T  </i>
   </separator>
   <separator name="electronic projectors" >
    <i type="logical" name="LREAL"> T  </i>
    <v name="ROPT">     -0.00040000     -0.00040000     -0.00040000</v>
    <i type="int" name="LMAXPAW">  -100</i>
    <i type="int" name="LMAXMIX">     2</i>
    <i type="logical" name="NLSPLINE"> F  </i>
   </separator>
   <separator name="electronic startup" >
    <i type="int" name="ISTART">     1</i>
    <i type="int" name="ICHARG">    11</i>
    <i type="int" name="INIWAV">     1</i>
   </separator>
   <separator name="electronic spin" >
    <i type="int" name="ISPIN">     1</i>
    <i type="logical" name="LNONCOLLINEAR"> F  </i>
    <v name="MAGMOM">      1.00000000      1.00000000      1.00000000      1.00000000      1.00000000      1.00000000      1.00000000      1.00000000      1.00000000      1.00000000      1.00000000      1.00000000      1.00000000      1.00000000      1.00000000      1.00000000      1.00000000      1.00000000      1.00000000      1.00000000
      1.00000000      1.00000000      1.00000000      1.00000000      1.00000000      1.00000000      1.00000000      1.00000000      1.00000000      1.00000000      1.00000000      1.00000000      1.00000000      1.00000000      1.00000000      1.00000000      1.00000000      1.00000000      1.00000000      1.00000000
      1.00000000      1.00000000      1.00000000      1.00000000      1.00000000      1.00000000      1.00000000      1.00000000      1.00000000      1.00000000      1.00000000      1.00000000      1.00000000      1.00000000      1.00000000      1.00000000      1.00000000      1.00000000      1.00000000      1.00000000
      1.00000000      1.00000000      1.00000000      1.00000000      1.00000000      1.00000000      1.00000000      1.00000000      1.00000000      1.00000000      1.00000000      1.00000000      1.00000000      1.00000000      1.00000000      1.00000000      1.00000000      1.00000000      1.00000000      1.00000000
      1.00000000      1.00000000      1.00000000      1.00000000      1.00000000      1.00000000      1.00000000      1.00000000      1.00000000      1.00000000      1.00000000      1.00000000      1.00000000      1.00000000      1.00000000      1.00000000      1.00000000      1.00000000      1.00000000      1.00000000
      1.00000000      1.00000000      1.00000000      1.00000000      1.00000000      1.00000000      1.00000000      1.00000000      1.00000000      1.00000000      1.00000000      1.00000000      1.00000000      1.00000000      1.00000000      1.00000000      1.00000000      1.00000000      1.00000000      1.00000000
      1.00000000      1.00000000      1.00000000      1.00000000      1.00000000      1.00000000      1.00000000      1.00000000      1.00000000      1.00000000      1.00000000      1.00000000      1.00000000      1.00000000      1.00000000      1.00000000      1.00000000      1.00000000      1.00000000      1.00000000
      1.00000000      1.00000000      1.00000000      1.00000000      1.00000000      1.00000000      1.00000000      1.00000000      1.00000000      1.00000000      1.00000000      1.00000000      1.00000000      1.00000000      1.00000000      1.00000000      1.00000000      1.00000000      1.00000000      1.00000000
      1.00000000      1.00000000      1.00000000      1.00000000      1.00000000      1.00000000      1.00000000      1.00000000      1.00000000      1.00000000      1.00000000      1.00000000      1.00000000      1.00000000      1.00000000      1.00000000      1.00000000      1.00000000      1.00000000      1.00000000
      1.00000000      1.00000000      1.00000000      1.00000000      1.00000000      1.00000000      1.00000000      1.00000000      1.00000000      1.00000000      1.00000000      1.00000000      1.00000000      1.00000000      1.00000000      1.00000000      1.00000000      1.00000000      1.00000000      1.00000000
      1.00000000      1.00000000      1.00000000      1.00000000      1.00000000      1.00000000      1.00000000      1.00000000      1.00000000      1.00000000      1.00000000      1.00000000      1.00000000      1.00000000      1.00000000      1.00000000      1.00000000      1.00000000      1.00000000      1.00000000
      1.00000000      1.00000000      1.00000000      1.00000000      1.00000000      1.00000000      1.00000000      1.00000000      1.00000000      1.00000000      1.00000000      1.00000000      1.00000000      1.00000000      1.00000000      1.00000000      1.00000000      1.00000000      1.00000000      1.00000000
      1.00000000      1.00000000      1.00000000      1.00000000      1.00000000      1.00000000      1.00000000      1.00000000      1.00000000      1.00000000      1.00000000      1.00000000</v>
    <i name="NUPDOWN">     -1.00000000</i>
    <i type="logical" name="LSORBIT"> F  </i>
    <v name="SAXIS">      0.00000000      0.00000000      1.00000000</v>
    <i type="logical" name="LSPIRAL"> F  </i>
    <v name="QSPIRAL">      0.00000000      0.00000000      0.00000000</v>
    <i type="logical" name="LZEROZ"> F  </i>
   </separator>
   <separator name="electronic exchange-correlation" >
    <i type="logical" name="LASPH"> F  </i>
    <i type="logical" name="LMETAGGA"> F  </i>
   </separator>
   <separator name="electronic convergence" >
    <i type="int" name="NELM">   200</i>
    <i type="int" name="NELMDL">     0</i>
    <i type="int" name="NELMIN">     2</i>
    <i name="ENINI">    500.00000000</i>
    <separator name="electronic convergence detail" >
     <i type="logical" name="LDIAG"> T  </i>
     <i type="logical" name="LSUBROT"> F  </i>
     <i name="WEIMIN">      0.00000000</i>
     <i name="EBREAK">      0.00000000</i>
     <i name="DEPER">      0.30000000</i>
     <i type="int" name="NRMM">     4</i>
     <i name="TIME">      0.40000000</i>
    </separator>
   </separator>
   <separator name="electronic mixer" >
    <i name="AMIX">      0.40000000</i>
    <i name="BMIX">      1.00000000</i>
    <i name="AMIN">      0.10000000</i>
    <i name="AMIX_MAG">      1.60000000</i>
    <i name="BMIX_MAG">      1.00000000</i>
    <separator name="electronic mixer details" >
     <i type="int" name="IMIX">     4</i>
     <i type="logical" name="MIXFIRST"> F  </i>
     <i type="int" name="MAXMIX">   -45</i>
     <i name="WC">    100.00000000</i>
     <i type="int" name="INIMIX">     1</i>
     <i type="int" name="MIXPRE">     1</i>
     <i type="int" name="MREMOVE">     5</i>
    </separator>
   </separator>
   <separator name="electronic dipolcorrection" >
    <i type="logical" name="LDIPOL"> F  </i>
    <i type="logical" name="LMONO"> F  </i>
    <i type="int" name="IDIPOL">     0</i>
    <i name="EPSILON">      1.00000000</i>
    <v name="DIPOL">   -100.00000000   -100.00000000   -100.00000000</v>
    <i name="EFIELD">      0.00000000</i>
   </separator>
  </separator>
  <separator name="grids" >
   <i type="int" name="NGX">   392</i>
   <i type="int" name="NGY">   160</i>
   <i type="int" name="NGZ">   150</i>
   <i type="int" name="NGXF">   600</i>
   <i type="int" name="NGYF">   240</i>
   <i type="int" name="NGZF">   224</i>
   <i type="logical" name="ADDGRID"> F  </i>
  </separator>
  <separator name="ionic" >
   <i type="int" name="NSW">     0</i>
   <i type="int" name="IBRION">    -1</i>
   <i type="int" name="MDALGO">     0</i>
   <i type="int" name="ISIF">     2</i>
   <i name="PSTRESS">      0.00000000</i>
   <i name="EDIFFG">     -0.01000000</i>
   <i type="int" name="NFREE">     0</i>
   <i name="POTIM">      0.30000000</i>
   <i name="SMASS">     -3.00000000</i>
   <i name="SCALEE">      1.00000000</i>
  </separator>
  <separator name="ionic md" >
   <i name="TEBEG">      0.00010000</i>
   <i name="TEEND">      0.00010000</i>
   <i type="int" name="NBLOCK">     1</i>
   <i type="int" name="KBLOCK">     1</i>
   <i type="int" name="NPACO">   256</i>
   <i name="APACO">     16.00000000</i>
  </separator>
  <separator name="symmetry" >
   <i type="int" name="ISYM">     2</i>
   <i name="SYMPREC">      0.00001000</i>
  </separator>
  <separator name="dos" >
   <i type="int" name="LORBIT">     0</i>
   <v name="RWIGS">     -1.00000000     -1.00000000     -1.00000000</v>
   <i type="int" name="NEDOS">   301</i>
   <i name="EMIN">     10.00000000</i>
   <i name="EMAX">    -10.00000000</i>
   <i name="EFERMI">      0.00000000</i>
  </separator>
  <separator name="writing" >
   <i type="int" name="NWRITE">     0</i>
   <i type="logical" name="LWAVE"> F  </i>
   <i type="logical" name="LDOWNSAMPLE"> F  </i>
   <i type="logical" name="LCHARG"> F  </i>
   <i type="logical" name="LPARD"> F  </i>
   <i type="logical" name="LVTOT"> F  </i>
   <i type="logical" name="LVHAR"> F  </i>
   <i type="logical" name="LELF"> F  </i>
   <i type="logical" name="LOPTICS"> F  </i>
   <v name="STM">      0.00000000      0.00000000      0.00000000      0.00000000      0.00000000      0.00000000      0.00000000</v>
  </separator>
  <separator name="performance" >
   <i type="int" name="NPAR">    16</i>
   <i type="int" name="NSIM">     4</i>
   <i type="int" name="NBLK">    -1</i>
   <i type="logical" name="LPLANE"> T  </i>
   <i type="logical" name="LSCALAPACK"> T  </i>
   <i type="logical" name="LSCAAWARE"> F  </i>
   <i type="logical" name="LSCALU"> F  </i>
   <i type="logical" name="LASYNC"> F  </i>
   <i type="logical" name="LORBITALREAL"> F  </i>
  </separator>
  <separator name="miscellaneous" >
   <i type="int" name="IDIOT">     3</i>
   <i type="int" name="ISPECIAL">     0</i>
   <i type="logical" name="LMUSIC"> F  </i>
   <v name="POMASS">     14.00100000      1.00000000     12.01100000</v>
   <v name="DARWINR">      0.00000000      0.00000000      0.00000000</v>
   <v name="DARWINV">      1.00000000      1.00000000      1.00000000</v>
   <i type="logical" name="LCORR"> T  </i>
  </separator>
  <i type="logical" name="GGA_COMPAT"> T  </i>
  <i type="logical" name="LBERRY"> F  </i>
  <i type="int" name="ICORELEVEL">     0</i>
  <i type="logical" name="LDAU"> F  </i>
  <i type="int" name="I_CONSTRAINED_M">     0</i>
  <separator name="electronic exchange-correlation" >
   <i type="string" name="GGA">PE</i>
   <i type="int" name="VOSKOWN">     0</i>
   <i type="logical" name="LHFCALC"> F  </i>
   <i type="string" name="PRECFOCK"></i>
   <i type="logical" name="LSYMGRAD"> F  </i>
   <i type="logical" name="LHFONE"> F  </i>
   <i type="logical" name="LRHFCALC"> F  </i>
   <i type="logical" name="LTHOMAS"> F  </i>
   <i type="logical" name="LMODELHF"> F  </i>
   <i name="ENCUT4O">     -1.00000000</i>
   <i type="int" name="EXXOEP">     0</i>
   <i type="int" name="FOURORBIT">     0</i>
   <i name="AEXX">      0.00000000</i>
   <i name="HFALPHA">      0.00000000</i>
   <i name="MCALPHA">      0.00000000</i>
   <i name="ALDAX">      1.00000000</i>
   <i name="AGGAX">      1.00000000</i>
   <i name="ALDAC">      1.00000000</i>
   <i name="AGGAC">      1.00000000</i>
   <i type="int" name="NKREDX">     1</i>
   <i type="int" name="NKREDY">     1</i>
   <i type="int" name="NKREDZ">     1</i>
   <i type="logical" name="SHIFTRED"> F  </i>
   <i type="logical" name="ODDONLY"> F  </i>
   <i type="logical" name="EVENONLY"> F  </i>
   <i type="int" name="LMAXFOCK">     0</i>
   <i type="int" name="NMAXFOCKAE">     0</i>
   <i type="logical" name="LFOCKAEDFT"> F  </i>
   <i name="HFSCREEN">      0.00000000</i>
   <i name="HFSCREENC">      0.00000000</i>
   <i type="int" name="NBANDSGWLOW">     0</i>
  </separator>
  <separator name="vdW DFT" >
   <i type="logical" name="LUSE_VDW"> F  </i>
   <i name="Zab_VDW">     -0.84910000</i>
   <i name="PARAM1">      0.12340000</i>
   <i name="PARAM2">      1.00000000</i>
   <i name="PARAM3">      0.00000000</i>
  </separator>
  <separator name="model GW" >
   <i type="int" name="MODEL_GW">     0</i>
   <i name="MODEL_EPS0">     54.01732646</i>
   <i name="MODEL_ALPHA">      1.00000000</i>
  </separator>
  <separator name="linear response parameters" >
   <i type="logical" name="LEPSILON"> F  </i>
   <i type="logical" name="LRPA"> F  </i>
   <i type="logical" name="LNABLA"> F  </i>
   <i type="logical" name="LVEL"> F  </i>
   <i type="int" name="KINTER">     0</i>
   <i name="CSHIFT">      0.10000000</i>
   <i name="OMEGAMAX">     -1.00000000</i>
   <i name="DEG_THRESHOLD">      0.00200000</i>
   <i name="RTIME">     -0.10000000</i>
   <i name="WPLASMAI">      0.00000000</i>
   <v name="DFIELD">      0.00000000      0.00000000      0.00000000</v>
   <v name="WPLASMA">      0.00000000      0.00000000      0.00000000      0.00000000      0.00000000      0.00000000      0.00000000      0.00000000      0.00000000</v>
  </separator>
  <separator name="orbital magnetization" >
   <i type="logical" name="NUCIND"> F  </i>
   <v name="MAGPOS">      0.00000000      0.00000000      0.00000000</v>
   <i type="logical" name="LNICSALL"> T  </i>
   <i type="logical" name="ORBITALMAG"> F  </i>
   <i type="logical" name="LMAGBLOCH"> F  </i>
   <i type="logical" name="LCHIMAG"> F  </i>
   <i type="logical" name="LGAUGE"> T  </i>
   <i type="int" name="MAGATOM">     0</i>
   <v name="MAGDIPOL">      0.00000000      0.00000000      0.00000000</v>
   <v name="AVECCONST">      0.00000000      0.00000000      0.00000000</v>
  </separator>
  <separator name="response functions" >
   <i type="logical" name="LADDER"> F  </i>
   <i type="logical" name="LRPAFORCE"> F  </i>
   <i type="logical" name="LFXC"> F  </i>
   <i type="logical" name="LHARTREE"> T  </i>
   <i type="int" name="IBSE">     0</i>
   <v type="int" name="KPOINT">    -1     0     0     0</v>
   <i type="logical" name="LTCTE"> F  </i>
   <i type="logical" name="LTETE"> F  </i>
   <i type="logical" name="LTRIPLET"> F  </i>
   <i type="logical" name="LFXCEPS"> F  </i>
   <i type="logical" name="LFXHEG"> F  </i>
   <i type="int" name="NATURALO">     2</i>
   <i type="logical" name="L2ORDER"> F  </i>
   <i type="logical" name="LMP2LT"> F  </i>
   <i type="logical" name="LUSEW"> F  </i>
   <i name="ENCUTGW">     -2.00000000</i>
   <i name="ENCUTGWSOFT">     -2.00000000</i>
   <i name="ENCUTLF">     -1.00000000</i>
   <i type="int" name="LMAXMP2">    -1</i>
   <i name="SCISSOR">      0.00000000</i>
   <i type="int" name="NOMEGA">     0</i>
   <i type="int" name="NOMEGAR">     0</i>
   <i type="int" name="NBANDSGW">    -1</i>
   <i type="int" name="NBANDSO">    -1</i>
   <i type="int" name="NBANDSV">    -1</i>
   <i type="int" name="NELM">   200</i>
   <i type="int" name="NELMHF">     1</i>
   <i type="int" name="DIM">     3</i>
   <i type="int" name="ANTIRES">     0</i>
   <i name="OMEGAMAX">    -30.00000000</i>
   <i name="OMEGAMIN">    -30.00000000</i>
   <i name="OMEGATL">   -200.00000000</i>
   <i type="int" name="OMEGAGRID">   140</i>
   <i name="CSHIFT">     -0.10000000</i>
   <i type="logical" name="SELFENERGY"> F  </i>
   <i type="logical" name="LSPECTRAL"> F  </i>
   <i type="logical" name="LSPECTRALGW"> F  </i>
   <i type="logical" name="LSINGLES"> F  </i>
   <i type="logical" name="LFERMIGW"> F  </i>
   <i type="logical" name="ODDONLYGW"> F  </i>
   <i type="logical" name="EVENONLYGW"> F  </i>
   <i type="int" name="NKREDLFX">     1</i>
   <i type="int" name="NKREDLFY">     1</i>
   <i type="int" name="NKREDLFZ">     1</i>
   <i type="int" name="MAXMEM">  2800</i>
   <i type="int" name="TELESCOPE">     0</i>
   <i type="int" name="TAUPAR">     1</i>
   <i type="int" name="OMEGAPAR">    -1</i>
   <i name="LAMBDA">      1.00000000</i>
  </separator>
  <separator name="External order field" >
   <i name="OFIELD_KAPPA">      0.00000000</i>
   <v name="OFIELD_K">      0.00000000      0.00000000      0.00000000</v>
   <i name="OFIELD_Q6_NEAR">      0.00000000</i>
   <i name="OFIELD_Q6_FAR">      0.00000000</i>
   <i name="OFIELD_A">      0.00000000</i>
  </separator>
  <separator name="solvation model" >
   <i type="logical" name="LSOL"> F  </i>
  </separator>
 </parameters>
 <atominfo>
  <atoms>     252 </atoms>
  <types>       3 </types>
  <array name="atoms" >
   <dimension dim="1">ion</dimension>
   <field type="string">element</field>
   <field type="int">atomtype</field>
   <set>
    <rc><c>N </c><c>   1</c></rc>
    <rc><c>N </c><c>   1</c></rc>
    <rc><c>N </c><c>   1</c></rc>
    <rc><c>N </c><c>   1</c></rc>
    <rc><c>N </c><c>   1</c></rc>
    <rc><c>N </c><c>   1</c></rc>
    <rc><c>N </c><c>   1</c></rc>
    <rc><c>N </c><c>   1</c></rc>
    <rc><c>N </c><c>   1</c></rc>
    <rc><c>N </c><c>   1</c></rc>
    <rc><c>N </c><c>   1</c></rc>
    <rc><c>N </c><c>   1</c></rc>
    <rc><c>N </c><c>   1</c></rc>
    <rc><c>N </c><c>   1</c></rc>
    <rc><c>N </c><c>   1</c></rc>
    <rc><c>N </c><c>   1</c></rc>
    <rc><c>N </c><c>   1</c></rc>
    <rc><c>N </c><c>   1</c></rc>
    <rc><c>N </c><c>   1</c></rc>
    <rc><c>N </c><c>   1</c></rc>
    <rc><c>N </c><c>   1</c></rc>
    <rc><c>N </c><c>   1</c></rc>
    <rc><c>N </c><c>   1</c></rc>
    <rc><c>N </c><c>   1</c></rc>
    <rc><c>N </c><c>   1</c></rc>
    <rc><c>N </c><c>   1</c></rc>
    <rc><c>N </c><c>   1</c></rc>
    <rc><c>N </c><c>   1</c></rc>
    <rc><c>N </c><c>   1</c></rc>
    <rc><c>N </c><c>   1</c></rc>
    <rc><c>N </c><c>   1</c></rc>
    <rc><c>N </c><c>   1</c></rc>
    <rc><c>N </c><c>   1</c></rc>
    <rc><c>N </c><c>   1</c></rc>
    <rc><c>N </c><c>   1</c></rc>
    <rc><c>N </c><c>   1</c></rc>
    <rc><c>H </c><c>   2</c></rc>
    <rc><c>H </c><c>   2</c></rc>
    <rc><c>H </c><c>   2</c></rc>
    <rc><c>H </c><c>   2</c></rc>
    <rc><c>H </c><c>   2</c></rc>
    <rc><c>H </c><c>   2</c></rc>
    <rc><c>H </c><c>   2</c></rc>
    <rc><c>H </c><c>   2</c></rc>
    <rc><c>H </c><c>   2</c></rc>
    <rc><c>H </c><c>   2</c></rc>
    <rc><c>H </c><c>   2</c></rc>
    <rc><c>H </c><c>   2</c></rc>
    <rc><c>H </c><c>   2</c></rc>
    <rc><c>H </c><c>   2</c></rc>
    <rc><c>H </c><c>   2</c></rc>
    <rc><c>H </c><c>   2</c></rc>
    <rc><c>H </c><c>   2</c></rc>
    <rc><c>H </c><c>   2</c></rc>
    <rc><c>H </c><c>   2</c></rc>
    <rc><c>H </c><c>   2</c></rc>
    <rc><c>H </c><c>   2</c></rc>
    <rc><c>H </c><c>   2</c></rc>
    <rc><c>H </c><c>   2</c></rc>
    <rc><c>H </c><c>   2</c></rc>
    <rc><c>H </c><c>   2</c></rc>
    <rc><c>H </c><c>   2</c></rc>
    <rc><c>H </c><c>   2</c></rc>
    <rc><c>H </c><c>   2</c></rc>
    <rc><c>H </c><c>   2</c></rc>
    <rc><c>H </c><c>   2</c></rc>
    <rc><c>H </c><c>   2</c></rc>
    <rc><c>H </c><c>   2</c></rc>
    <rc><c>H </c><c>   2</c></rc>
    <rc><c>H </c><c>   2</c></rc>
    <rc><c>H </c><c>   2</c></rc>
    <rc><c>H </c><c>   2</c></rc>
    <rc><c>H </c><c>   2</c></rc>
    <rc><c>H </c><c>   2</c></rc>
    <rc><c>H </c><c>   2</c></rc>
    <rc><c>H </c><c>   2</c></rc>
    <rc><c>H </c><c>   2</c></rc>
    <rc><c>H </c><c>   2</c></rc>
    <rc><c>H </c><c>   2</c></rc>
    <rc><c>H </c><c>   2</c></rc>
    <rc><c>H </c><c>   2</c></rc>
    <rc><c>H </c><c>   2</c></rc>
    <rc><c>H </c><c>   2</c></rc>
    <rc><c>H </c><c>   2</c></rc>
    <rc><c>H </c><c>   2</c></rc>
    <rc><c>H </c><c>   2</c></rc>
    <rc><c>H </c><c>   2</c></rc>
    <rc><c>H </c><c>   2</c></rc>
    <rc><c>H </c><c>   2</c></rc>
    <rc><c>H </c><c>   2</c></rc>
    <rc><c>H </c><c>   2</c></rc>
    <rc><c>H </c><c>   2</c></rc>
    <rc><c>H </c><c>   2</c></rc>
    <rc><c>H </c><c>   2</c></rc>
    <rc><c>H </c><c>   2</c></rc>
    <rc><c>H </c><c>   2</c></rc>
    <rc><c>H </c><c>   2</c></rc>
    <rc><c>H </c><c>   2</c></rc>
    <rc><c>H </c><c>   2</c></rc>
    <rc><c>H </c><c>   2</c></rc>
    <rc><c>H </c><c>   2</c></rc>
    <rc><c>H </c><c>   2</c></rc>
    <rc><c>H </c><c>   2</c></rc>
    <rc><c>H </c><c>   2</c></rc>
    <rc><c>H </c><c>   2</c></rc>
    <rc><c>H </c><c>   2</c></rc>
    <rc><c>H </c><c>   2</c></rc>
    <rc><c>H </c><c>   2</c></rc>
    <rc><c>C </c><c>   3</c></rc>
    <rc><c>C </c><c>   3</c></rc>
    <rc><c>C </c><c>   3</c></rc>
    <rc><c>C </c><c>   3</c></rc>
    <rc><c>C </c><c>   3</c></rc>
    <rc><c>C </c><c>   3</c></rc>
    <rc><c>C </c><c>   3</c></rc>
    <rc><c>C </c><c>   3</c></rc>
    <rc><c>C </c><c>   3</c></rc>
    <rc><c>C </c><c>   3</c></rc>
    <rc><c>C </c><c>   3</c></rc>
    <rc><c>C </c><c>   3</c></rc>
    <rc><c>C </c><c>   3</c></rc>
    <rc><c>C </c><c>   3</c></rc>
    <rc><c>C </c><c>   3</c></rc>
    <rc><c>C </c><c>   3</c></rc>
    <rc><c>C </c><c>   3</c></rc>
    <rc><c>C </c><c>   3</c></rc>
    <rc><c>C </c><c>   3</c></rc>
    <rc><c>C </c><c>   3</c></rc>
    <rc><c>C </c><c>   3</c></rc>
    <rc><c>C </c><c>   3</c></rc>
    <rc><c>C </c><c>   3</c></rc>
    <rc><c>C </c><c>   3</c></rc>
    <rc><c>C </c><c>   3</c></rc>
    <rc><c>C </c><c>   3</c></rc>
    <rc><c>C </c><c>   3</c></rc>
    <rc><c>C </c><c>   3</c></rc>
    <rc><c>C </c><c>   3</c></rc>
    <rc><c>C </c><c>   3</c></rc>
    <rc><c>C </c><c>   3</c></rc>
    <rc><c>C </c><c>   3</c></rc>
    <rc><c>C </c><c>   3</c></rc>
    <rc><c>C </c><c>   3</c></rc>
    <rc><c>C </c><c>   3</c></rc>
    <rc><c>C </c><c>   3</c></rc>
    <rc><c>C </c><c>   3</c></rc>
    <rc><c>C </c><c>   3</c></rc>
    <rc><c>C </c><c>   3</c></rc>
    <rc><c>C </c><c>   3</c></rc>
    <rc><c>C </c><c>   3</c></rc>
    <rc><c>C </c><c>   3</c></rc>
    <rc><c>C </c><c>   3</c></rc>
    <rc><c>C </c><c>   3</c></rc>
    <rc><c>C </c><c>   3</c></rc>
    <rc><c>C </c><c>   3</c></rc>
    <rc><c>C </c><c>   3</c></rc>
    <rc><c>C </c><c>   3</c></rc>
    <rc><c>C </c><c>   3</c></rc>
    <rc><c>C </c><c>   3</c></rc>
    <rc><c>C </c><c>   3</c></rc>
    <rc><c>C </c><c>   3</c></rc>
    <rc><c>C </c><c>   3</c></rc>
    <rc><c>C </c><c>   3</c></rc>
    <rc><c>C </c><c>   3</c></rc>
    <rc><c>C </c><c>   3</c></rc>
    <rc><c>C </c><c>   3</c></rc>
    <rc><c>C </c><c>   3</c></rc>
    <rc><c>C </c><c>   3</c></rc>
    <rc><c>C </c><c>   3</c></rc>
    <rc><c>C </c><c>   3</c></rc>
    <rc><c>C </c><c>   3</c></rc>
    <rc><c>C </c><c>   3</c></rc>
    <rc><c>C </c><c>   3</c></rc>
    <rc><c>C </c><c>   3</c></rc>
    <rc><c>C </c><c>   3</c></rc>
    <rc><c>C </c><c>   3</c></rc>
    <rc><c>C </c><c>   3</c></rc>
    <rc><c>C </c><c>   3</c></rc>
    <rc><c>C </c><c>   3</c></rc>
    <rc><c>C </c><c>   3</c></rc>
    <rc><c>C </c><c>   3</c></rc>
    <rc><c>C </c><c>   3</c></rc>
    <rc><c>C </c><c>   3</c></rc>
    <rc><c>C </c><c>   3</c></rc>
    <rc><c>C </c><c>   3</c></rc>
    <rc><c>C </c><c>   3</c></rc>
    <rc><c>C </c><c>   3</c></rc>
    <rc><c>C </c><c>   3</c></rc>
    <rc><c>C </c><c>   3</c></rc>
    <rc><c>C </c><c>   3</c></rc>
    <rc><c>C </c><c>   3</c></rc>
    <rc><c>C </c><c>   3</c></rc>
    <rc><c>C </c><c>   3</c></rc>
    <rc><c>C </c><c>   3</c></rc>
    <rc><c>C </c><c>   3</c></rc>
    <rc><c>C </c><c>   3</c></rc>
    <rc><c>C </c><c>   3</c></rc>
    <rc><c>C </c><c>   3</c></rc>
    <rc><c>C </c><c>   3</c></rc>
    <rc><c>C </c><c>   3</c></rc>
    <rc><c>C </c><c>   3</c></rc>
    <rc><c>C </c><c>   3</c></rc>
    <rc><c>C </c><c>   3</c></rc>
    <rc><c>C </c><c>   3</c></rc>
    <rc><c>C </c><c>   3</c></rc>
    <rc><c>C </c><c>   3</c></rc>
    <rc><c>C </c><c>   3</c></rc>
    <rc><c>C </c><c>   3</c></rc>
    <rc><c>C </c><c>   3</c></rc>
    <rc><c>C </c><c>   3</c></rc>
    <rc><c>C </c><c>   3</c></rc>
    <rc><c>C </c><c>   3</c></rc>
    <rc><c>C </c><c>   3</c></rc>
    <rc><c>C </c><c>   3</c></rc>
    <rc><c>C </c><c>   3</c></rc>
    <rc><c>C </c><c>   3</c></rc>
    <rc><c>C </c><c>   3</c></rc>
    <rc><c>C </c><c>   3</c></rc>
    <rc><c>C </c><c>   3</c></rc>
    <rc><c>C </c><c>   3</c></rc>
    <rc><c>C </c><c>   3</c></rc>
    <rc><c>C </c><c>   3</c></rc>
    <rc><c>C </c><c>   3</c></rc>
    <rc><c>C </c><c>   3</c></rc>
    <rc><c>C </c><c>   3</c></rc>
    <rc><c>C </c><c>   3</c></rc>
    <rc><c>C </c><c>   3</c></rc>
    <rc><c>C </c><c>   3</c></rc>
    <rc><c>C </c><c>   3</c></rc>
    <rc><c>C </c><c>   3</c></rc>
    <rc><c>C </c><c>   3</c></rc>
    <rc><c>C </c><c>   3</c></rc>
    <rc><c>C </c><c>   3</c></rc>
    <rc><c>C </c><c>   3</c></rc>
    <rc><c>C </c><c>   3</c></rc>
    <rc><c>C </c><c>   3</c></rc>
    <rc><c>C </c><c>   3</c></rc>
    <rc><c>C </c><c>   3</c></rc>
    <rc><c>C </c><c>   3</c></rc>
    <rc><c>C </c><c>   3</c></rc>
    <rc><c>C </c><c>   3</c></rc>
    <rc><c>C </c><c>   3</c></rc>
    <rc><c>C </c><c>   3</c></rc>
    <rc><c>C </c><c>   3</c></rc>
    <rc><c>C </c><c>   3</c></rc>
    <rc><c>C </c><c>   3</c></rc>
    <rc><c>C </c><c>   3</c></rc>
    <rc><c>C </c><c>   3</c></rc>
    <rc><c>C </c><c>   3</c></rc>
    <rc><c>C </c><c>   3</c></rc>
    <rc><c>C </c><c>   3</c></rc>
    <rc><c>C </c><c>   3</c></rc>
    <rc><c>C </c><c>   3</c></rc>
   </set>
  </array>
  <array name="atomtypes" >
   <dimension dim="1">type</dimension>
   <field type="int">atomspertype</field>
   <field type="string">element</field>
   <field>mass</field>
   <field>valence</field>
   <field type="string">pseudopotential</field>
   <set>
    <rc><c>  36</c><c>N </c><c>     14.00100000</c><c>      5.00000000</c><c>  PAW_PBE N 08Apr2002                   </c></rc>
    <rc><c>  72</c><c>H </c><c>      1.00000000</c><c>      1.00000000</c><c>  PAW_PBE H 15Jun2001                   </c></rc>
    <rc><c> 144</c><c>C </c><c>     12.01100000</c><c>      4.00000000</c><c>  PAW_PBE C 08Apr2002                   </c></rc>
   </set>
  </array>
 </atominfo>
 <structure name="initialpos" >
  <crystal>
   <varray name="basis" >
    <v>      53.45964065       0.03351372       0.00000000 </v>
    <v>       0.01303443      21.21907815       0.00000000 </v>
    <v>       0.00000000       0.00000000      20.00000000 </v>
   </varray>
   <i name="volume">  22687.27711485 </i>
   <varray name="rec_basis" >
    <v>       0.01870571      -0.00001149       0.00000000 </v>
    <v>      -0.00002954       0.04712742       0.00000000 </v>
    <v>       0.00000000       0.00000000       0.05000000 </v>
   </varray>
  </crystal>
  <varray name="positions" >
   <v>       0.15178679       0.32989532       0.50110861 </v>
   <v>       0.18277062       0.25043495       0.51914220 </v>
   <v>       0.19523526       0.35302752       0.48709711 </v>
   <v>       0.85260172       0.67908882       0.49959986 </v>
   <v>       0.82149434       0.75874717       0.51537697 </v>
   <v>       0.80930340       0.65612557       0.48277698 </v>
   <v>       0.15071090       0.67737419       0.48843497 </v>
   <v>       0.18172844       0.75791714       0.49835179 </v>
   <v>       0.19381230       0.65468612       0.46772106 </v>
   <v>       0.85257389       0.33122373       0.49353201 </v>
   <v>       0.82156085       0.25068951       0.50343867 </v>
   <v>       0.80946640       0.35406968       0.47313262 </v>
   <v>       0.65228849       0.83113433       0.50215393 </v>
   <v>       0.68301423       0.75012952       0.51604569 </v>
   <v>       0.69568279       0.85316516       0.48616473 </v>
   <v>       0.35208637       0.17634610       0.50768274 </v>
   <v>       0.32155519       0.25790848       0.52142615 </v>
   <v>       0.30855923       0.15446734       0.49424731 </v>
   <v>       0.65260215       0.17917076       0.49299742 </v>
   <v>       0.68356881       0.26003004       0.50072058 </v>
   <v>       0.69584506       0.15563669       0.47554710 </v>
   <v>       0.35110426       0.82708030       0.48808866 </v>
   <v>       0.31997917       0.74640802       0.48892664 </v>
   <v>       0.30786009       0.85237547       0.47322395 </v>
   <v>       0.06745128       0.06143254       0.51466017 </v>
   <v>       0.06737325       0.94870801       0.51209607 </v>
   <v>       0.10483442       0.00424983       0.53553315 </v>
   <v>       0.93639402       0.94882131       0.51651616 </v>
   <v>       0.93632989       0.06158509       0.51624010 </v>
   <v>       0.89897189       0.00523511       0.53901664 </v>
   <v>       0.56776000       0.56171661       0.51264418 </v>
   <v>       0.56827724       0.44890591       0.51034694 </v>
   <v>       0.60550110       0.50575053       0.53279925 </v>
   <v>       0.43740663       0.44503624       0.51216793 </v>
   <v>       0.43642691       0.55778285       0.50407753 </v>
   <v>       0.39926930       0.50064193       0.52609339 </v>
   <v>       0.13207436       0.44568477       0.53019081 </v>
   <v>       0.13150565       0.56369208       0.52400356 </v>
   <v>       0.87200620       0.56308342       0.53072175 </v>
   <v>       0.87196083       0.44497684       0.52785149 </v>
   <v>       0.63299674       0.94720695       0.53288925 </v>
   <v>       0.63304993       0.06530512       0.52918424 </v>
   <v>       0.37112197       0.05831113       0.53798579 </v>
   <v>       0.37087400       0.94042919       0.53053946 </v>
   <v>       0.13777719       0.06772066       0.57880597 </v>
   <v>       0.16663540       0.15967398       0.57398802 </v>
   <v>       0.86578594       0.94112931       0.57890788 </v>
   <v>       0.83713061       0.84890446       0.57209497 </v>
   <v>       0.07870245       0.83195286       0.48223617 </v>
   <v>       0.10723755       0.73864594       0.47188777 </v>
   <v>       0.92463520       0.17778013       0.48646451 </v>
   <v>       0.89584154       0.27065014       0.47633862 </v>
   <v>       0.63761083       0.56930709       0.57908977 </v>
   <v>       0.66656377       0.66104790       0.57457622 </v>
   <v>       0.36786105       0.43910230       0.57905491 </v>
   <v>       0.33858822       0.34788864       0.57765484 </v>
   <v>       0.57998229       0.33113105       0.48484920 </v>
   <v>       0.60894536       0.23847241       0.47663488 </v>
   <v>       0.42517672       0.68028361       0.49948675 </v>
   <v>       0.39582902       0.77201253       0.49060470 </v>
   <v>       0.21815935       0.17433595       0.51020789 </v>
   <v>       0.26308774       0.14057947       0.51056227 </v>
   <v>       0.78611812       0.83467422       0.50353660 </v>
   <v>       0.74109107       0.86794511       0.50268049 </v>
   <v>       0.21704506       0.83394009       0.48671330 </v>
   <v>       0.26207773       0.86687152       0.48514233 </v>
   <v>       0.78653881       0.17470022       0.48926819 </v>
   <v>       0.74155363       0.14118019       0.48793686 </v>
   <v>       0.02523030       0.10661261       0.50677089 </v>
   <v>       0.97837506       0.10655696       0.50799736 </v>
   <v>       0.52641490       0.40304309       0.50626014 </v>
   <v>       0.47958539       0.40167336       0.50575216 </v>
   <v>       0.19923483       0.44244549       0.41171114 </v>
   <v>       0.19842148       0.55943674       0.40463869 </v>
   <v>       0.80526357       0.56552139       0.41056053 </v>
   <v>       0.80532073       0.44838386       0.40736986 </v>
   <v>       0.70029943       0.94396972       0.41501657 </v>
   <v>       0.70029099       0.06108378       0.41108180 </v>
   <v>       0.30358242       0.06549611       0.42127384 </v>
   <v>       0.30343252       0.94864779       0.41352492 </v>
   <v>       0.07988226       0.17833451       0.48647864 </v>
   <v>       0.10893083       0.27084146       0.48146258 </v>
   <v>       0.92442068       0.83180932       0.48817037 </v>
   <v>       0.89558077       0.73903340       0.48119135 </v>
   <v>       0.13861764       0.93933318       0.56902240 </v>
   <v>       0.16702387       0.84677125       0.55831504 </v>
   <v>       0.86523442       0.06977728       0.57484498 </v>
   <v>       0.83653678       0.16185495       0.56425117 </v>
   <v>       0.58025692       0.67947546       0.48372224 </v>
   <v>       0.60936083       0.77194191       0.47941734 </v>
   <v>       0.42448727       0.32560076       0.48489432 </v>
   <v>       0.39502769       0.23377836       0.48359564 </v>
   <v>       0.64002324       0.44363561       0.56320069 </v>
   <v>       0.66884686       0.35171062       0.55471509 </v>
   <v>       0.36242796       0.55513852       0.51895252 </v>
   <v>       0.33330816       0.64621337       0.50986072 </v>
   <v>       0.24107745       0.36831126       0.50270327 </v>
   <v>       0.28602893       0.33463344       0.50642410 </v>
   <v>       0.76356137       0.64038773       0.49732567 </v>
   <v>       0.71851718       0.67359087       0.50000760 </v>
   <v>       0.23944047       0.63986241       0.47189676 </v>
   <v>       0.28445437       0.67260412       0.47229496 </v>
   <v>       0.76367489       0.36881602       0.48076419 </v>
   <v>       0.71868022       0.33537944       0.48233840 </v>
   <v>       0.02533986       0.90410005       0.50311606 </v>
   <v>       0.97848725       0.90404758       0.50463924 </v>
   <v>       0.52539408       0.60540676       0.49775267 </v>
   <v>       0.47854983       0.60396773       0.49612630 </v>
   <v>       0.17086606       0.36936457       0.48757903 </v>
   <v>       0.15886944       0.27027874       0.51540928 </v>
   <v>       0.20032611       0.29325199       0.50419487 </v>
   <v>       0.83362195       0.63955235       0.48519545 </v>
   <v>       0.84541645       0.73882032       0.51309344 </v>
   <v>       0.80408476       0.71589091       0.49945280 </v>
   <v>       0.16965316       0.63766150       0.47359916 </v>
   <v>       0.15788293       0.73749840       0.49947778 </v>
   <v>       0.19904606       0.71501481       0.48164621 </v>
   <v>       0.83367249       0.37092429       0.47848590 </v>
   <v>       0.84539149       0.27113980       0.50467464 </v>
   <v>       0.80424636       0.29373344       0.48705545 </v>
   <v>       0.67143677       0.87032837       0.48841373 </v>
   <v>       0.65919562       0.77099893       0.51443267 </v>
   <v>       0.70061899       0.79288168       0.50132141 </v>
   <v>       0.33280416       0.13718440       0.49519651 </v>
   <v>       0.34533295       0.23666974       0.51949703 </v>
   <v>       0.30378715       0.21509206       0.50834887 </v>
   <v>       0.67158359       0.13907027       0.47998102 </v>
   <v>       0.65972879       0.23960583       0.50221070 </v>
   <v>       0.70098017       0.21643840       0.48707442 </v>
   <v>       0.33219181       0.86819217       0.47809582 </v>
   <v>       0.34388464       0.76615217       0.49191177 </v>
   <v>       0.30258299       0.79104643       0.48016236 </v>
   <v>       0.09209803       0.05829931       0.52748172 </v>
   <v>       0.05576651       0.00519718       0.51039326 </v>
   <v>       0.09204372       0.95080683       0.52461813 </v>
   <v>       0.91176990       0.95144757       0.52976855 </v>
   <v>       0.94799163       0.00521277       0.51310219 </v>
   <v>       0.91167711       0.05896086       0.52895611 </v>
   <v>       0.59244053       0.55935949       0.52534709 </v>
   <v>       0.55639668       0.50506175       0.50827553 </v>
   <v>       0.59296075       0.45184017       0.52252003 </v>
   <v>       0.41261988       0.44720778       0.52297226 </v>
   <v>       0.44854697       0.50187119       0.50571396 </v>
   <v>       0.41158532       0.55447001       0.51372808 </v>
   <v>       0.14603463       0.53674151       0.49849014 </v>
   <v>       0.14638922       0.47091530       0.50207332 </v>
   <v>       0.16624691       0.43691574       0.47347370 </v>
   <v>       0.16546049       0.56901208       0.46594202 </v>
   <v>       0.85763444       0.47175749       0.50133883 </v>
   <v>       0.85764740       0.53766149       0.50295579 </v>
   <v>       0.83809337       0.57160201       0.47282667 </v>
   <v>       0.83810007       0.43931306       0.46945215 </v>
   <v>       0.64751293       0.03837104       0.50338907 </v>
   <v>       0.64749171       0.97247577       0.50548385 </v>
   <v>       0.66717449       0.93835324       0.47619635 </v>
   <v>       0.66719842       0.07056995       0.47189322 </v>
   <v>       0.35637384       0.96816305       0.50586627 </v>
   <v>       0.35650199       0.03400761       0.51007194 </v>
   <v>       0.33686032       0.06919177       0.48203474 </v>
   <v>       0.33663679       0.93701347       0.47343781 </v>
   <v>       0.13154139       0.11244333       0.55798049 </v>
   <v>       0.14757222       0.16351570       0.55530566 </v>
   <v>       0.87223788       0.89662001       0.55803520 </v>
   <v>       0.85631109       0.84540401       0.55420970 </v>
   <v>       0.11392516       0.78263974       0.49362457 </v>
   <v>       0.09802569       0.83465010       0.49941696 </v>
   <v>       0.10704110       0.89201110       0.52500903 </v>
   <v>       0.13911897       0.78737055       0.51303274 </v>
   <v>       0.88933582       0.22661957       0.49839099 </v>
   <v>       0.90537369       0.17490956       0.50408964 </v>
   <v>       0.89655559       0.11751695       0.53004759 </v>
   <v>       0.86421001       0.22149933       0.51825653 </v>
   <v>       0.63151189       0.61390804       0.55768693 </v>
   <v>       0.64758941       0.66486762       0.55522336 </v>
   <v>       0.37372583       0.39390789       0.55857523 </v>
   <v>       0.35746616       0.34326479       0.55783408 </v>
   <v>       0.61557559       0.28347817       0.49603535 </v>
   <v>       0.59943514       0.33512370       0.50064391 </v>
   <v>       0.60832266       0.39363782       0.52344534 </v>
   <v>       0.64088433       0.28968099       0.51386351 </v>
   <v>       0.38862982       0.72434524       0.49703885 </v>
   <v>       0.40500328       0.67312056       0.50199208 </v>
   <v>       0.39564913       0.61163780       0.50988372 </v>
   <v>       0.36260308       0.71495014       0.49951661 </v>
   <v>       0.25806319       0.19035135       0.50947062 </v>
   <v>       0.23314511       0.20908030       0.50906191 </v>
   <v>       0.22687826       0.27339477       0.50626011 </v>
   <v>       0.27729066       0.23552456       0.50855974 </v>
   <v>       0.74623560       0.81824354       0.50207151 </v>
   <v>       0.77117955       0.79980830       0.50230301 </v>
   <v>       0.77752844       0.73553786       0.50028118 </v>
   <v>       0.72712435       0.77278003       0.50139001 </v>
   <v>       0.23195321       0.79902737       0.48321376 </v>
   <v>       0.25691358       0.81727694       0.48238939 </v>
   <v>       0.77153778       0.20945283       0.48724662 </v>
   <v>       0.74662835       0.19088635       0.48666553 </v>
   <v>       0.01481711       0.06252398       0.50572026 </v>
   <v>       0.98883232       0.06248971       0.50643775 </v>
   <v>       0.51577014       0.44677887       0.50372681 </v>
   <v>       0.48979351       0.44600725       0.50337980 </v>
   <v>       0.18429265       0.46920499       0.43550099 </v>
   <v>       0.18384390       0.53422884       0.43157611 </v>
   <v>       0.81997671       0.53888873       0.43546985 </v>
   <v>       0.81999831       0.47377575       0.43372902 </v>
   <v>       0.68548944       0.97078872       0.43928898 </v>
   <v>       0.68548428       0.03587082       0.43711061 </v>
   <v>       0.31839321       0.03791012       0.44454768 </v>
   <v>       0.31830906       0.97294060       0.44023726 </v>
   <v>       0.11504163       0.22633507       0.50332355 </v>
   <v>       0.09886231       0.17476551       0.50608410 </v>
   <v>       0.10722051       0.11669202       0.53154680 </v>
   <v>       0.13982885       0.22057617       0.52600460 </v>
   <v>       0.88925929       0.78331103       0.50314789 </v>
   <v>       0.90532520       0.83504269       0.50701402 </v>
   <v>       0.89672869       0.89283820       0.53264657 </v>
   <v>       0.86433007       0.78862630       0.52479739 </v>
   <v>       0.13183955       0.89515696       0.54819669 </v>
   <v>       0.14761193       0.84375220       0.54224451 </v>
   <v>       0.87182983       0.11400814       0.55372688 </v>
   <v>       0.85590260       0.16512347       0.54782861 </v>
   <v>       0.61533143       0.72752485       0.50176235 </v>
   <v>       0.59911843       0.67598671       0.50415387 </v>
   <v>       0.60735780       0.61802688       0.53011706 </v>
   <v>       0.64001536       0.72172282       0.52518850 </v>
   <v>       0.38930750       0.27878879       0.50504342 </v>
   <v>       0.40572285       0.32997226       0.50578289 </v>
   <v>       0.39774995       0.38867864       0.53036876 </v>
   <v>       0.36471762       0.28567554       0.52887063 </v>
   <v>       0.63332408       0.39848593       0.54470036 </v>
   <v>       0.64932880       0.34744797       0.53994033 </v>
   <v>       0.36960558       0.60277364       0.51309887 </v>
   <v>       0.35343549       0.65334013       0.50798589 </v>
   <v>       0.24610175       0.31857057       0.50502477 </v>
   <v>       0.27103623       0.29987506       0.50691934 </v>
   <v>       0.75842027       0.69007407       0.49901250 </v>
   <v>       0.73345977       0.70848332       0.50034417 </v>
   <v>       0.26956792       0.70761159       0.47503405 </v>
   <v>       0.24461652       0.68942380       0.47488330 </v>
   <v>       0.22554548       0.73489457       0.47952951 </v>
   <v>       0.27599742       0.77172682       0.47883254 </v>
   <v>       0.73368953       0.30060123       0.48335541 </v>
   <v>       0.75860456       0.31912683       0.48261391 </v>
   <v>       0.77776879       0.27375872       0.48522741 </v>
   <v>       0.72746583       0.23630157       0.48538057 </v>
   <v>       0.98889679       0.94814580       0.50452972 </v>
   <v>       0.01487618       0.94817758       0.50370261 </v>
   <v>       0.02815431       0.00535067       0.50531589 </v>
   <v>       0.97556874       0.00528678       0.50685789 </v>
   <v>       0.48920472       0.56021714       0.49812896 </v>
   <v>       0.51519704       0.56100239       0.49886950 </v>
   <v>       0.52879847       0.50431674       0.50246300 </v>
   <v>       0.47618104       0.50274602       0.50137981 </v>
  </varray>
 </structure>
 <calculation>
  <scstep>
   <time name="dav"> 1616.83 1645.67</time>
   <time name="total"> 1617.25 1646.11</time>
   <energy>
    <i name="alphaZ">    142.64392726 </i>
    <i name="ewald">  91903.58796467 </i>
    <i name="hartreedc">-117915.96854463 </i>
    <i name="XCdc">   2901.28435124 </i>
    <i name="pawpsdc">  78807.87322569 </i>
    <i name="pawaedc"> -78957.97129030 </i>
    <i name="eentropy">     -0.00000000 </i>
    <i name="bandstr"> -10348.27911227 </i>
    <i name="atom">  31611.65025265 </i>
    <i name="e_fr_energy">  -1855.17922569 </i>
    <i name="e_wo_entrp">  -1855.17922569 </i>
    <i name="e_0_energy">  -1855.17922569 </i>
   </energy>
  </scstep>
  <scstep>
   <time name="dav"> 1775.02 1799.88</time>
   <time name="total"> 1775.03 1799.89</time>
   <energy>
    <i name="e_fr_energy">  -1856.41279923 </i>
    <i name="e_wo_entrp">  -1856.41279923 </i>
    <i name="e_0_energy">  -1856.41279923 </i>
   </energy>
  </scstep>
  <scstep>
   <time name="dav"> 2079.08 2096.39</time>
   <time name="total"> 2079.10 2096.41</time>
   <energy>
    <i name="e_fr_energy">  -1856.45135000 </i>
    <i name="e_wo_entrp">  -1856.45135000 </i>
    <i name="e_0_energy">  -1856.45135000 </i>
   </energy>
  </scstep>
  <scstep>
   <time name="dav"> 1775.80 1790.25</time>
   <time name="total"> 1775.83 1790.28</time>
   <energy>
    <i name="e_fr_energy">  -1856.45185950 </i>
    <i name="e_wo_entrp">  -1856.45185950 </i>
    <i name="e_0_energy">  -1856.45185950 </i>
   </energy>
  </scstep>
  <scstep>
   <time name="dav"> 1759.91 1774.52</time>
   <time name="total"> 1759.93 1774.55</time>
   <energy>
    <i name="e_fr_energy">  -1856.45188530 </i>
    <i name="e_wo_entrp">  -1856.45188530 </i>
    <i name="e_0_energy">  -1856.45188530 </i>
   </energy>
  </scstep>
  <scstep>
   <time name="dav"> 1381.91 1393.46</time>
   <time name="total"> 1381.93 1393.48</time>
   <energy>
    <i name="alphaZ">    142.64392726 </i>
    <i name="ewald">  91903.58796467 </i>
    <i name="hartreedc">-117915.96854463 </i>
    <i name="XCdc">   2901.28435124 </i>
    <i name="pawpsdc">  78807.87322569 </i>
    <i name="pawaedc"> -78957.97129030 </i>
    <i name="eentropy">     -0.00000000 </i>
    <i name="bandstr"> -10349.55177262 </i>
    <i name="atom">  31611.65025265 </i>
    <i name="e_fr_energy">  -1856.45188603 </i>
    <i name="e_wo_entrp">  -1856.45188603 </i>
    <i name="e_0_energy">  -1856.45188603 </i>
   </energy>
  </scstep>
  <structure>
   <crystal>
    <varray name="basis" >
     <v>      53.45964065       0.03351372       0.00000000 </v>
     <v>       0.01303443      21.21907815       0.00000000 </v>
     <v>       0.00000000       0.00000000      20.00000000 </v>
    </varray>
    <i name="volume">  22687.27711485 </i>
    <varray name="rec_basis" >
     <v>       0.01870571      -0.00001149       0.00000000 </v>
     <v>      -0.00002954       0.04712742       0.00000000 </v>
     <v>       0.00000000       0.00000000       0.05000000 </v>
    </varray>
   </crystal>
   <varray name="positions" >
    <v>       0.15178679       0.32989532       0.50110861 </v>
    <v>       0.18277062       0.25043495       0.51914220 </v>
    <v>       0.19523526       0.35302752       0.48709711 </v>
    <v>       0.85260172       0.67908882       0.49959986 </v>
[...]
       <r>    -3.9633     0.0000   828.0000 </r>
       <r>    -3.8659     0.0000   828.0000 </r>
       <r>    -3.7686     0.0000   828.0000 </r>
       <r>    -3.6713     0.0000   828.0000 </r>
       <r>    -3.5740     0.0000   828.0000 </r>
       <r>    -3.4766     0.0000   828.0000 </r>
       <r>    -3.3793     0.0000   828.0000 </r>
       <r>    -3.2820     0.0000   828.0000 </r>
       <r>    -3.1847     0.0000   828.0000 </r>
       <r>    -3.0874     0.0000   828.0000 </r>
       <r>    -2.9900    36.5014   831.5524 </r>
       <r>    -2.8927    84.7637   841.9007 </r>
       <r>    -2.7954    41.1492   846.2299 </r>
       <r>    -2.6981    16.9591   848.1776 </r>
       <r>    -2.6007    15.2785   849.9372 </r>
       <r>    -2.5034    30.1526   853.6861 </r>
       <r>    -2.4061     4.6779   854.3304 </r>
       <r>    -2.3088    23.7658   857.2158 </r>
       <r>    -2.2115    21.0662   859.5006 </r>
       <r>    -2.1141    18.2966   861.4059 </r>
       <r>    -2.0168     3.7205   861.8122 </r>
       <r>    -1.9195     6.4081   862.4987 </r>
       <r>    -1.8222     5.2986   863.0909 </r>
       <r>    -1.7248     2.7320   863.5662 </r>
       <r>    -1.6275    93.8015   872.7560 </r>
       <r>    -1.5302    10.6109   876.0851 </r>
       <r>    -1.4329     2.6390   876.4070 </r>
       <r>    -1.3356     3.8914   876.8287 </r>
       <r>    -1.2382     5.4422   877.5047 </r>
       <r>    -1.1409     4.3497   878.1736 </r>
       <r>    -1.0436    15.7620   879.8090 </r>
       <r>    -0.9463   158.3902   895.3401 </r>
       <r>    -0.8490   121.6710   911.5974 </r>
       <r>    -0.7516    37.9673   917.3976 </r>
       <r>    -0.6543    15.3019   919.2145 </r>
       <r>    -0.5570    23.1779   921.5559 </r>
       <r>    -0.4597     5.1697   922.2284 </r>
       <r>    -0.3623    18.1008   924.1366 </r>
       <r>    -0.2650    21.0496   926.6738 </r>
       <r>    -0.1677    33.7249   930.2577 </r>
       <r>    -0.0704    40.9018   934.6578 </r>
       <r>     0.0269    43.4089   939.6498 </r>
       <r>     0.1243    46.8239   945.0829 </r>
       <r>     0.2216    67.8886   953.3576 </r>
       <r>     0.3189    69.8158   960.5698 </r>
       <r>     0.4162    57.5356   966.9253 </r>
       <r>     0.5136    95.6909   977.3891 </r>
       <r>     0.6109   117.5401   991.8915 </r>
       <r>     0.7082    92.3732  1002.4665 </r>
       <r>     0.8055    93.0794  1013.4353 </r>
       <r>     0.9028   116.3849  1026.9289 </r>
       <r>     1.0002   121.7709  1040.2544 </r>
       <r>     1.0975   120.5158  1055.1821 </r>
       <r>     1.1948   152.2307  1072.7183 </r>
       <r>     1.2921   101.4066  1085.1710 </r>
       <r>     1.3895     8.7278  1088.0000 </r>
       <r>     1.4868     0.0000  1088.0000 </r>
       <r>     1.5841     0.0000  1088.0000 </r>
       <r>     1.6814     0.0000  1088.0000 </r>
       <r>     1.7787     0.0000  1088.0000 </r>
       <r>     1.8761     0.0000  1088.0000 </r>
       <r>     1.9734     0.0000  1088.0000 </r>
       <r>     2.0707     0.0000  1088.0000 </r>
       <r>     2.1680     0.0000  1088.0000 </r>
       <r>     2.2653     0.0000  1088.0000 </r>
       <r>     2.3627     0.0000  1088.0000 </r>
       <r>     2.4600     0.0000  1088.0000 </r>
       <r>     2.5573     0.0000  1088.0000 </r>
       <r>     2.6546     0.0000  1088.0000 </r>
      </set>
     </set>
    </array>
   </total>
  </dos>
 </calculation>
 <structure name="finalpos" >
  <crystal>
   <varray name="basis" >
    <v>      53.45964065       0.03351372       0.00000000 </v>
    <v>       0.01303443      21.21907815       0.00000000 </v>
    <v>       0.00000000       0.00000000      20.00000000 </v>
   </varray>
   <i name="volume">  22687.27711485 </i>
   <varray name="rec_basis" >
    <v>       0.01870571      -0.00001149       0.00000000 </v>
    <v>      -0.00002954       0.04712742       0.00000000 </v>
    <v>       0.00000000       0.00000000       0.05000000 </v>
   </varray>
  </crystal>
  <varray name="positions" >
   <v>       0.15178679       0.32989532       0.50110861 </v>
   <v>       0.18277062       0.25043495       0.51914220 </v>
   <v>       0.19523526       0.35302752       0.48709711 </v>
   <v>       0.85260172       0.67908882       0.49959986 </v>
   <v>       0.82149434       0.75874717       0.51537697 </v>
   <v>       0.80930340       0.65612557       0.48277698 </v>
   <v>       0.15071090       0.67737419       0.48843497 </v>
   <v>       0.18172844       0.75791714       0.49835179 </v>
   <v>       0.19381230       0.65468612       0.46772106 </v>
   <v>       0.85257389       0.33122373       0.49353201 </v>
   <v>       0.82156085       0.25068951       0.50343867 </v>
   <v>       0.80946640       0.35406968       0.47313262 </v>
   <v>       0.65228849       0.83113433       0.50215393 </v>
   <v>       0.68301423       0.75012952       0.51604569 </v>
   <v>       0.69568279       0.85316516       0.48616473 </v>
   <v>       0.35208637       0.17634610       0.50768274 </v>
   <v>       0.32155519       0.25790848       0.52142615 </v>
   <v>       0.30855923       0.15446734       0.49424731 </v>
   <v>       0.65260215       0.17917076       0.49299742 </v>
   <v>       0.68356881       0.26003004       0.50072058 </v>
   <v>       0.69584506       0.15563669       0.47554710 </v>
   <v>       0.35110426       0.82708030       0.48808866 </v>
   <v>       0.31997917       0.74640802       0.48892664 </v>
   <v>       0.30786009       0.85237547       0.47322395 </v>
   <v>       0.06745128       0.06143254       0.51466017 </v>
   <v>       0.06737325       0.94870801       0.51209607 </v>
   <v>       0.10483442       0.00424983       0.53553315 </v>
   <v>       0.93639402       0.94882131       0.51651616 </v>
   <v>       0.93632989       0.06158509       0.51624010 </v>
   <v>       0.89897189       0.00523511       0.53901664 </v>
   <v>       0.56776000       0.56171661       0.51264418 </v>
   <v>       0.56827724       0.44890591       0.51034694 </v>
   <v>       0.60550110       0.50575053       0.53279925 </v>
   <v>       0.43740663       0.44503624       0.51216793 </v>
   <v>       0.43642691       0.55778285       0.50407753 </v>
   <v>       0.39926930       0.50064193       0.52609339 </v>
   <v>       0.13207436       0.44568477       0.53019081 </v>
   <v>       0.13150565       0.56369208       0.52400356 </v>
   <v>       0.87200620       0.56308342       0.53072175 </v>
   <v>       0.87196083       0.44497684       0.52785149 </v>
   <v>       0.63299674       0.94720695       0.53288925 </v>
   <v>       0.63304993       0.06530512       0.52918424 </v>
   <v>       0.37112197       0.05831113       0.53798579 </v>
   <v>       0.37087400       0.94042919       0.53053946 </v>
   <v>       0.13777719       0.06772066       0.57880597 </v>
   <v>       0.16663540       0.15967398       0.57398802 </v>
   <v>       0.86578594       0.94112931       0.57890788 </v>
   <v>       0.83713061       0.84890446       0.57209497 </v>
   <v>       0.07870245       0.83195286       0.48223617 </v>
   <v>       0.10723755       0.73864594       0.47188777 </v>
   <v>       0.92463520       0.17778013       0.48646451 </v>
   <v>       0.89584154       0.27065014       0.47633862 </v>
   <v>       0.63761083       0.56930709       0.57908977 </v>
   <v>       0.66656377       0.66104790       0.57457622 </v>
   <v>       0.36786105       0.43910230       0.57905491 </v>
   <v>       0.33858822       0.34788864       0.57765484 </v>
   <v>       0.57998229       0.33113105       0.48484920 </v>
   <v>       0.60894536       0.23847241       0.47663488 </v>
   <v>       0.42517672       0.68028361       0.49948675 </v>
   <v>       0.39582902       0.77201253       0.49060470 </v>
   <v>       0.21815935       0.17433595       0.51020789 </v>
   <v>       0.26308774       0.14057947       0.51056227 </v>
   <v>       0.78611812       0.83467422       0.50353660 </v>
   <v>       0.74109107       0.86794511       0.50268049 </v>
   <v>       0.21704506       0.83394009       0.48671330 </v>
   <v>       0.26207773       0.86687152       0.48514233 </v>
   <v>       0.78653881       0.17470022       0.48926819 </v>
   <v>       0.74155363       0.14118019       0.48793686 </v>
   <v>       0.02523030       0.10661261       0.50677089 </v>
   <v>       0.97837506       0.10655696       0.50799736 </v>
   <v>       0.52641490       0.40304309       0.50626014 </v>
   <v>       0.47958539       0.40167336       0.50575216 </v>
   <v>       0.19923483       0.44244549       0.41171114 </v>
   <v>       0.19842148       0.55943674       0.40463869 </v>
   <v>       0.80526357       0.56552139       0.41056053 </v>
   <v>       0.80532073       0.44838386       0.40736986 </v>
   <v>       0.70029943       0.94396972       0.41501657 </v>
   <v>       0.70029099       0.06108378       0.41108180 </v>
   <v>       0.30358242       0.06549611       0.42127384 </v>
   <v>       0.30343252       0.94864779       0.41352492 </v>
   <v>       0.07988226       0.17833451       0.48647864 </v>
   <v>       0.10893083       0.27084146       0.48146258 </v>
   <v>       0.92442068       0.83180932       0.48817037 </v>
   <v>       0.89558077       0.73903340       0.48119135 </v>
   <v>       0.13861764       0.93933318       0.56902240 </v>
   <v>       0.16702387       0.84677125       0.55831504 </v>
   <v>       0.86523442       0.06977728       0.57484498 </v>
   <v>       0.83653678       0.16185495       0.56425117 </v>
   <v>       0.58025692       0.67947546       0.48372224 </v>
   <v>       0.60936083       0.77194191       0.47941734 </v>
   <v>       0.42448727       0.32560076       0.48489432 </v>
   <v>       0.39502769       0.23377836       0.48359564 </v>
   <v>       0.64002324       0.44363561       0.56320069 </v>
   <v>       0.66884686       0.35171062       0.55471509 </v>
   <v>       0.36242796       0.55513852       0.51895252 </v>
   <v>       0.33330816       0.64621337       0.50986072 </v>
   <v>       0.24107745       0.36831126       0.50270327 </v>
   <v>       0.28602893       0.33463344       0.50642410 </v>
   <v>       0.76356137       0.64038773       0.49732567 </v>
   <v>       0.71851718       0.67359087       0.50000760 </v>
   <v>       0.23944047       0.63986241       0.47189676 </v>
   <v>       0.28445437       0.67260412       0.47229496 </v>
   <v>       0.76367489       0.36881602       0.48076419 </v>
   <v>       0.71868022       0.33537944       0.48233840 </v>
   <v>       0.02533986       0.90410005       0.50311606 </v>
   <v>       0.97848725       0.90404758       0.50463924 </v>
   <v>       0.52539408       0.60540676       0.49775267 </v>
   <v>       0.47854983       0.60396773       0.49612630 </v>
   <v>       0.17086606       0.36936457       0.48757903 </v>
   <v>       0.15886944       0.27027874       0.51540928 </v>
   <v>       0.20032611       0.29325199       0.50419487 </v>
   <v>       0.83362195       0.63955235       0.48519545 </v>
   <v>       0.84541645       0.73882032       0.51309344 </v>
   <v>       0.80408476       0.71589091       0.49945280 </v>
   <v>       0.16965316       0.63766150       0.47359916 </v>
   <v>       0.15788293       0.73749840       0.49947778 </v>
   <v>       0.19904606       0.71501481       0.48164621 </v>
   <v>       0.83367249       0.37092429       0.47848590 </v>
   <v>       0.84539149       0.27113980       0.50467464 </v>
   <v>       0.80424636       0.29373344       0.48705545 </v>
   <v>       0.67143677       0.87032837       0.48841373 </v>
   <v>       0.65919562       0.77099893       0.51443267 </v>
   <v>       0.70061899       0.79288168       0.50132141 </v>
   <v>       0.33280416       0.13718440       0.49519651 </v>
   <v>       0.34533295       0.23666974       0.51949703 </v>
   <v>       0.30378715       0.21509206       0.50834887 </v>
   <v>       0.67158359       0.13907027       0.47998102 </v>
   <v>       0.65972879       0.23960583       0.50221070 </v>
   <v>       0.70098017       0.21643840       0.48707442 </v>
   <v>       0.33219181       0.86819217       0.47809582 </v>
   <v>       0.34388464       0.76615217       0.49191177 </v>
   <v>       0.30258299       0.79104643       0.48016236 </v>
   <v>       0.09209803       0.05829931       0.52748172 </v>
   <v>       0.05576651       0.00519718       0.51039326 </v>
   <v>       0.09204372       0.95080683       0.52461813 </v>
   <v>       0.91176990       0.95144757       0.52976855 </v>
   <v>       0.94799163       0.00521277       0.51310219 </v>
   <v>       0.91167711       0.05896086       0.52895611 </v>
   <v>       0.59244053       0.55935949       0.52534709 </v>
   <v>       0.55639668       0.50506175       0.50827553 </v>
   <v>       0.59296075       0.45184017       0.52252003 </v>
   <v>       0.41261988       0.44720778       0.52297226 </v>
   <v>       0.44854697       0.50187119       0.50571396 </v>
   <v>       0.41158532       0.55447001       0.51372808 </v>
   <v>       0.14603463       0.53674151       0.49849014 </v>
   <v>       0.14638922       0.47091530       0.50207332 </v>
   <v>       0.16624691       0.43691574       0.47347370 </v>
   <v>       0.16546049       0.56901208       0.46594202 </v>
   <v>       0.85763444       0.47175749       0.50133883 </v>
   <v>       0.85764740       0.53766149       0.50295579 </v>
   <v>       0.83809337       0.57160201       0.47282667 </v>
   <v>       0.83810007       0.43931306       0.46945215 </v>
   <v>       0.64751293       0.03837104       0.50338907 </v>
   <v>       0.64749171       0.97247577       0.50548385 </v>
   <v>       0.66717449       0.93835324       0.47619635 </v>
   <v>       0.66719842       0.07056995       0.47189322 </v>
   <v>       0.35637384       0.96816305       0.50586627 </v>
   <v>       0.35650199       0.03400761       0.51007194 </v>
   <v>       0.33686032       0.06919177       0.48203474 </v>
   <v>       0.33663679       0.93701347       0.47343781 </v>
   <v>       0.13154139       0.11244333       0.55798049 </v>
   <v>       0.14757222       0.16351570       0.55530566 </v>
   <v>       0.87223788       0.89662001       0.55803520 </v>
   <v>       0.85631109       0.84540401       0.55420970 </v>
   <v>       0.11392516       0.78263974       0.49362457 </v>
   <v>       0.09802569       0.83465010       0.49941696 </v>
   <v>       0.10704110       0.89201110       0.52500903 </v>
   <v>       0.13911897       0.78737055       0.51303274 </v>
   <v>       0.88933582       0.22661957       0.49839099 </v>
   <v>       0.90537369       0.17490956       0.50408964 </v>
   <v>       0.89655559       0.11751695       0.53004759 </v>
   <v>       0.86421001       0.22149933       0.51825653 </v>
   <v>       0.63151189       0.61390804       0.55768693 </v>
   <v>       0.64758941       0.66486762       0.55522336 </v>
   <v>       0.37372583       0.39390789       0.55857523 </v>
   <v>       0.35746616       0.34326479       0.55783408 </v>
   <v>       0.61557559       0.28347817       0.49603535 </v>
   <v>       0.59943514       0.33512370       0.50064391 </v>
   <v>       0.60832266       0.39363782       0.52344534 </v>
   <v>       0.64088433       0.28968099       0.51386351 </v>
   <v>       0.38862982       0.72434524       0.49703885 </v>
   <v>       0.40500328       0.67312056       0.50199208 </v>
   <v>       0.39564913       0.61163780       0.50988372 </v>
   <v>       0.36260308       0.71495014       0.49951661 </v>
   <v>       0.25806319       0.19035135       0.50947062 </v>
   <v>       0.23314511       0.20908030       0.50906191 </v>
   <v>       0.22687826       0.27339477       0.50626011 </v>
   <v>       0.27729066       0.23552456       0.50855974 </v>
   <v>       0.74623560       0.81824354       0.50207151 </v>
   <v>       0.77117955       0.79980830       0.50230301 </v>
   <v>       0.77752844       0.73553786       0.50028118 </v>
   <v>       0.72712435       0.77278003       0.50139001 </v>
   <v>       0.23195321       0.79902737       0.48321376 </v>
   <v>       0.25691358       0.81727694       0.48238939 </v>
   <v>       0.77153778       0.20945283       0.48724662 </v>
   <v>       0.74662835       0.19088635       0.48666553 </v>
   <v>       0.01481711       0.06252398       0.50572026 </v>
   <v>       0.98883232       0.06248971       0.50643775 </v>
   <v>       0.51577014       0.44677887       0.50372681 </v>
   <v>       0.48979351       0.44600725       0.50337980 </v>
   <v>       0.18429265       0.46920499       0.43550099 </v>
   <v>       0.18384390       0.53422884       0.43157611 </v>
   <v>       0.81997671       0.53888873       0.43546985 </v>
   <v>       0.81999831       0.47377575       0.43372902 </v>
   <v>       0.68548944       0.97078872       0.43928898 </v>
   <v>       0.68548428       0.03587082       0.43711061 </v>
   <v>       0.31839321       0.03791012       0.44454768 </v>
   <v>       0.31830906       0.97294060       0.44023726 </v>
   <v>       0.11504163       0.22633507       0.50332355 </v>
   <v>       0.09886231       0.17476551       0.50608410 </v>
   <v>       0.10722051       0.11669202       0.53154680 </v>
   <v>       0.13982885       0.22057617       0.52600460 </v>
   <v>       0.88925929       0.78331103       0.50314789 </v>
   <v>       0.90532520       0.83504269       0.50701402 </v>
   <v>       0.89672869       0.89283820       0.53264657 </v>
   <v>       0.86433007       0.78862630       0.52479739 </v>
   <v>       0.13183955       0.89515696       0.54819669 </v>
   <v>       0.14761193       0.84375220       0.54224451 </v>
   <v>       0.87182983       0.11400814       0.55372688 </v>
   <v>       0.85590260       0.16512347       0.54782861 </v>
   <v>       0.61533143       0.72752485       0.50176235 </v>
   <v>       0.59911843       0.67598671       0.50415387 </v>
   <v>       0.60735780       0.61802688       0.53011706 </v>
   <v>       0.64001536       0.72172282       0.52518850 </v>
   <v>       0.38930750       0.27878879       0.50504342 </v>
   <v>       0.40572285       0.32997226       0.50578289 </v>
   <v>       0.39774995       0.38867864       0.53036876 </v>
   <v>       0.36471762       0.28567554       0.52887063 </v>
   <v>       0.63332408       0.39848593       0.54470036 </v>
   <v>       0.64932880       0.34744797       0.53994033 </v>
   <v>       0.36960558       0.60277364       0.51309887 </v>
   <v>       0.35343549       0.65334013       0.50798589 </v>
   <v>       0.24610175       0.31857057       0.50502477 </v>
   <v>       0.27103623       0.29987506       0.50691934 </v>
   <v>       0.75842027       0.69007407       0.49901250 </v>
   <v>       0.73345977       0.70848332       0.50034417 </v>
   <v>       0.26956792       0.70761159       0.47503405 </v>
   <v>       0.24461652       0.68942380       0.47488330 </v>
   <v>       0.22554548       0.73489457       0.47952951 </v>
   <v>       0.27599742       0.77172682       0.47883254 </v>
   <v>       0.73368953       0.30060123       0.48335541 </v>
   <v>       0.75860456       0.31912683       0.48261391 </v>
   <v>       0.77776879       0.27375872       0.48522741 </v>
   <v>       0.72746583       0.23630157       0.48538057 </v>
   <v>       0.98889679       0.94814580       0.50452972 </v>
   <v>       0.01487618       0.94817758       0.50370261 </v>
   <v>       0.02815431       0.00535067       0.50531589 </v>
   <v>       0.97556874       0.00528678       0.50685789 </v>
   <v>       0.48920472       0.56021714       0.49812896 </v>
   <v>       0.51519704       0.56100239       0.49886950 </v>
   <v>       0.52879847       0.50431674       0.50246300 </v>
   <v>       0.47618104       0.50274602       0.50137981 </v>
  </varray>
 </structure>
</modeling>
