<?xml version="1.0" encoding="ISO-8859-1"?>
<modeling>
 <generator>
  <i name="program" type="string">vasp </i>
  <i name="version" type="string">5.4.4.18Apr17-6-g9f103f2a35  </i>
  <i name="subversion" type="string">(build Jun 07 2020 16:50:00) complex            parallel </i>
  <i name="platform" type="string">LinuxIFC </i>
  <i name="date" type="string">2023 02 10 </i>
  <i name="time" type="string">13:08:50 </i>
 </generator>
 <incar>
  <i type="string" name="SYSTEM">Simulation for cell shape cell volume r</i>
  <i type="int" name="ISTART">     1</i>
  <i type="string" name="PREC">high</i>
  <i type="string" name="ALGO">48</i>
  <i type="int" name="ICHARG">    11</i>
  <i type="int" name="NELM">   200</i>
  <i type="int" name="IBRION">    -1</i>
  <i name="EDIFF">      0.00001000</i>
  <i name="EDIFFG">     -0.01000000</i>
  <i type="int" name="NSW">     0</i>
  <i type="int" name="ISIF">     2</i>
  <i name="ENCUT">    500.00000000</i>
  <i name="POTIM">      0.30000000</i>
  <i type="string" name="LREAL">A</i>
  <i type="int" name="ISMEAR">     0</i>
  <i name="SIGMA">      0.01000000</i>
  <i type="int" name="NWRITE">     0</i>
  <i type="logical" name="LWAVE"> F  </i>
  <i type="logical" name="LCHARG"> F  </i>
  <v type="int" name="KPOINT_BSE">    -1     0     0     0</v>
  <i type="int" name="NELM">   200</i>
  <i type="string" name="GGA">PE</i>
 </incar>
 <structure name="primitive_cell" >
  <crystal>
   <varray name="basis" >
    <v>      14.31960947      -0.00000004       0.00000000 </v>
    <v>      -7.15980470      12.40114559       0.00000000 </v>
    <v>       0.00000000       0.00000000      20.00000000 </v>
   </varray>
   <i name="volume">   3551.59123146 </i>
   <varray name="rec_basis" >
    <v>       0.06983431       0.04031886       0.00000000 </v>
    <v>       0.00000000       0.08063771       0.00000000 </v>
    <v>       0.00000000       0.00000000       0.05000000 </v>
   </varray>
  </crystal>
  <varray name="positions" >
   <v>      -0.38142671       0.22277421       0.46916905 </v>
   <v>      -0.43908056       0.27330200       0.46891021 </v>
   <v>      -0.27330200       0.28761744       0.46891021 </v>
   <v>      -0.48899026       0.08696916       0.39983564 </v>
   <v>      -0.22277421       0.39579909       0.46916905 </v>
   <v>      -0.39579909       0.38142671       0.46916905 </v>
   <v>      -0.20916021       0.23286444       0.46829862 </v>
   <v>       0.44202466       0.20916021       0.46829862 </v>
   <v>      -0.33226748       0.09707957      -0.47658259 </v>
   <v>      -0.28761744       0.43908056       0.46891021 </v>
   <v>      -0.25366900       0.13098545       0.49896491 </v>
   <v>       0.42375311       0.04891765       0.40038183 </v>
   <v>       0.37926467       0.10657801       0.43766979 </v>
   <v>       0.38465445       0.25366900       0.49896491 </v>
   <v>      -0.10657801       0.27268666       0.43766979 </v>
   <v>       0.42934705       0.33226748      -0.47658259 </v>
   <v>      -0.08696916       0.42404057       0.39983564 </v>
   <v>      -0.20522343       0.07221763      -0.49927970 </v>
   <v>      -0.23286444      -0.44202466       0.46829862 </v>
   <v>       0.36119952      -0.07427552       0.40109956 </v>
   <v>      -0.04891765       0.37483546       0.40038183 </v>
   <v>       0.27087257       0.05788596       0.44009133 </v>
   <v>      -0.42404057       0.48899026       0.39983564 </v>
   <v>       0.36288283      -0.01639731       0.33881859 </v>
   <v>       0.40954223      -0.11351376       0.40369935 </v>
   <v>       0.41247686      -0.01417906       0.29686256 </v>
   <v>      -0.09707957      -0.42934705      -0.47658259 </v>
   <v>      -0.05788596       0.21298660       0.44009133 </v>
   <v>       0.27744106       0.20522343      -0.49927970 </v>
   <v>       0.28677444      -0.11111792       0.43006526 </v>
   <v>      -0.10813914       0.11769601       0.47074177 </v>
   <v>      -0.13098545      -0.38465445       0.49896491 </v>
   <v>       0.22583515       0.10813914       0.47074177 </v>
   <v>       0.28958986      -0.01500779       0.32617506 </v>
   <v>      -0.27268666      -0.37926467       0.43766979 </v>
   <v>      -0.37483546      -0.42375311       0.40038183 </v>
   <v>       0.01639731       0.37928013       0.33881859 </v>
   <v>       0.07427552       0.43547504       0.40109956 </v>
   <v>       0.01500779       0.30459765       0.32617506 </v>
   <v>       0.01417906       0.42665593       0.29686256 </v>
   <v>       0.11111792       0.39789236       0.43006526 </v>
   <v>      -0.07221763      -0.27744106      -0.49927970 </v>
   <v>      -0.05030780       0.05461606       0.47142442 </v>
   <v>       0.11351376      -0.47694401       0.40369935 </v>
   <v>      -0.21298660      -0.27087257       0.44009133 </v>
   <v>      -0.37928013      -0.36288283       0.33881859 </v>
   <v>       0.10492385       0.05030780       0.47142442 </v>
   <v>      -0.43547504      -0.36119952       0.40109956 </v>
   <v>      -0.42665593      -0.41247686       0.29686256 </v>
   <v>       0.47694401      -0.40954223       0.40369935 </v>
   <v>      -0.11108682      -0.05319898       0.47143213 </v>
   <v>      -0.11769601      -0.22583515       0.47074177 </v>
   <v>       0.05319898      -0.05788784       0.47143213 </v>
   <v>      -0.30459765      -0.28958986       0.32617506 </v>
   <v>      -0.39789236      -0.28677444       0.43006526 </v>
   <v>       0.05788784       0.11108682       0.47143213 </v>
   <v>      -0.05461606      -0.10492385       0.47142442 </v>
  </varray>
 </structure>
 <varray name="primitive_index" >
  <v type="int" >        1 </v>
  <v type="int" >       20 </v>
  <v type="int" >       19 </v>
  <v type="int" >       42 </v>
  <v type="int" >        3 </v>
  <v type="int" >        2 </v>
  <v type="int" >       32 </v>
  <v type="int" >       17 </v>
  <v type="int" >       57 </v>
  <v type="int" >       21 </v>
  <v type="int" >       39 </v>
  <v type="int" >       14 </v>
  <v type="int" >       13 </v>
  <v type="int" >       16 </v>
  <v type="int" >       31 </v>
  <v type="int" >       41 </v>
  <v type="int" >       49 </v>
  <v type="int" >       11 </v>
  <v type="int" >       26 </v>
  <v type="int" >       15 </v>
  <v type="int" >       34 </v>
  <v type="int" >        9 </v>
  <v type="int" >       46 </v>
  <v type="int" >       18 </v>
  <v type="int" >       40 </v>
  <v type="int" >       54 </v>
  <v type="int" >       56 </v>
  <v type="int" >        8 </v>
  <v type="int" >       12 </v>
  <v type="int" >       55 </v>
  <v type="int" >       33 </v>
  <v type="int" >       38 </v>
  <v type="int" >       37 </v>
  <v type="int" >       43 </v>
  <v type="int" >       25 </v>
  <v type="int" >       28 </v>
  <v type="int" >       36 </v>
  <v type="int" >       35 </v>
  <v type="int" >       51 </v>
  <v type="int" >       50 </v>
  <v type="int" >       52 </v>
  <v type="int" >       10 </v>
  <v type="int" >       22 </v>
  <v type="int" >       53 </v>
  <v type="int" >        7 </v>
  <v type="int" >       30 </v>
  <v type="int" >       23 </v>
  <v type="int" >       29 </v>
  <v type="int" >       44 </v>
  <v type="int" >       45 </v>
  <v type="int" >        6 </v>
  <v type="int" >       27 </v>
  <v type="int" >        5 </v>
  <v type="int" >       47 </v>
  <v type="int" >       48 </v>
  <v type="int" >        4 </v>
  <v type="int" >       24 </v>
 </varray>
 <kpoints>
  <generation param="listgenerated">
   <i name="divisions" type="int">      20 </i>
   <v>       0.00000000       0.00000000       0.00000000 </v>
   <v>       0.50000000       0.00000000       0.00000000 </v>
   <v>       0.33333333       0.33333333       0.00000000 </v>
   <v>       0.00000000       0.00000000       0.00000000 </v>
  </generation>
  <varray name="kpointlist" >
   <v>       0.00000000       0.00000000       0.00000000 </v>
   <v>       0.02631579       0.00000000       0.00000000 </v>
   <v>       0.05263158       0.00000000       0.00000000 </v>
   <v>       0.07894737       0.00000000       0.00000000 </v>
   <v>       0.10526316       0.00000000       0.00000000 </v>
   <v>       0.13157895       0.00000000       0.00000000 </v>
   <v>       0.15789474       0.00000000       0.00000000 </v>
   <v>       0.18421053       0.00000000       0.00000000 </v>
   <v>       0.21052632       0.00000000       0.00000000 </v>
   <v>       0.23684211       0.00000000       0.00000000 </v>
   <v>       0.26315789       0.00000000       0.00000000 </v>
   <v>       0.28947368       0.00000000       0.00000000 </v>
   <v>       0.31578947       0.00000000       0.00000000 </v>
   <v>       0.34210526       0.00000000       0.00000000 </v>
   <v>       0.36842105       0.00000000       0.00000000 </v>
   <v>       0.39473684       0.00000000       0.00000000 </v>
   <v>       0.42105263       0.00000000       0.00000000 </v>
   <v>       0.44736842       0.00000000       0.00000000 </v>
   <v>       0.47368421       0.00000000       0.00000000 </v>
   <v>       0.50000000       0.00000000       0.00000000 </v>
   <v>       0.50000000       0.00000000       0.00000000 </v>
   <v>       0.49122807       0.01754386       0.00000000 </v>
   <v>       0.48245614       0.03508772       0.00000000 </v>
   <v>       0.47368421       0.05263158       0.00000000 </v>
   <v>       0.46491228       0.07017544       0.00000000 </v>
   <v>       0.45614035       0.08771930       0.00000000 </v>
   <v>       0.44736842       0.10526316       0.00000000 </v>
   <v>       0.43859649       0.12280702       0.00000000 </v>
   <v>       0.42982456       0.14035088       0.00000000 </v>
   <v>       0.42105263       0.15789474       0.00000000 </v>
   <v>       0.41228070       0.17543860       0.00000000 </v>
   <v>       0.40350877       0.19298246       0.00000000 </v>
   <v>       0.39473684       0.21052632       0.00000000 </v>
   <v>       0.38596491       0.22807018       0.00000000 </v>
   <v>       0.37719298       0.24561404       0.00000000 </v>
   <v>       0.36842105       0.26315789       0.00000000 </v>
   <v>       0.35964912       0.28070175       0.00000000 </v>
   <v>       0.35087719       0.29824561       0.00000000 </v>
   <v>       0.34210526       0.31578947       0.00000000 </v>
   <v>       0.33333333       0.33333333       0.00000000 </v>
   <v>       0.33333333       0.33333333       0.00000000 </v>
   <v>       0.31578947       0.31578947       0.00000000 </v>
   <v>       0.29824561       0.29824561       0.00000000 </v>
   <v>       0.28070175       0.28070175       0.00000000 </v>
   <v>       0.26315789       0.26315789       0.00000000 </v>
   <v>       0.24561404       0.24561404       0.00000000 </v>
   <v>       0.22807018       0.22807018       0.00000000 </v>
   <v>       0.21052632       0.21052632       0.00000000 </v>
   <v>       0.19298246       0.19298246       0.00000000 </v>
   <v>       0.17543860       0.17543860       0.00000000 </v>
   <v>       0.15789474       0.15789474       0.00000000 </v>
   <v>       0.14035088       0.14035088       0.00000000 </v>
   <v>       0.12280702       0.12280702       0.00000000 </v>
   <v>       0.10526316       0.10526316       0.00000000 </v>
   <v>       0.08771930       0.08771930       0.00000000 </v>
   <v>       0.07017544       0.07017544       0.00000000 </v>
   <v>       0.05263158       0.05263158       0.00000000 </v>
   <v>       0.03508772       0.03508772       0.00000000 </v>
   <v>       0.01754386       0.01754386       0.00000000 </v>
   <v>       0.00000000       0.00000000       0.00000000 </v>
  </varray>
  <varray name="weights" >
   <v>       0.01666667 </v>
   <v>       0.01666667 </v>
   <v>       0.01666667 </v>
   <v>       0.01666667 </v>
   <v>       0.01666667 </v>
   <v>       0.01666667 </v>
   <v>       0.01666667 </v>
   <v>       0.01666667 </v>
   <v>       0.01666667 </v>
   <v>       0.01666667 </v>
   <v>       0.01666667 </v>
   <v>       0.01666667 </v>
   <v>       0.01666667 </v>
   <v>       0.01666667 </v>
   <v>       0.01666667 </v>
   <v>       0.01666667 </v>
   <v>       0.01666667 </v>
   <v>       0.01666667 </v>
   <v>       0.01666667 </v>
   <v>       0.01666667 </v>
   <v>       0.01666667 </v>
   <v>       0.01666667 </v>
   <v>       0.01666667 </v>
   <v>       0.01666667 </v>
   <v>       0.01666667 </v>
   <v>       0.01666667 </v>
   <v>       0.01666667 </v>
   <v>       0.01666667 </v>
   <v>       0.01666667 </v>
   <v>       0.01666667 </v>
   <v>       0.01666667 </v>
   <v>       0.01666667 </v>
   <v>       0.01666667 </v>
   <v>       0.01666667 </v>
   <v>       0.01666667 </v>
   <v>       0.01666667 </v>
   <v>       0.01666667 </v>
   <v>       0.01666667 </v>
   <v>       0.01666667 </v>
   <v>       0.01666667 </v>
   <v>       0.01666667 </v>
   <v>       0.01666667 </v>
   <v>       0.01666667 </v>
   <v>       0.01666667 </v>
   <v>       0.01666667 </v>
   <v>       0.01666667 </v>
   <v>       0.01666667 </v>
   <v>       0.01666667 </v>
   <v>       0.01666667 </v>
   <v>       0.01666667 </v>
   <v>       0.01666667 </v>
   <v>       0.01666667 </v>
   <v>       0.01666667 </v>
   <v>       0.01666667 </v>
   <v>       0.01666667 </v>
   <v>       0.01666667 </v>
   <v>       0.01666667 </v>
   <v>       0.01666667 </v>
   <v>       0.01666667 </v>
   <v>       0.01666667 </v>
  </varray>
 </kpoints>
 <parameters>
  <separator name="general" >
   <i type="string" name="SYSTEM">Simulation for cell shape cell volume r</i>
   <i type="logical" name="LCOMPAT"> F  </i>
  </separator>
  <separator name="electronic" >
   <i type="string" name="PREC">high</i>
   <i name="ENMAX">    500.00000000</i>
   <i name="ENAUG">    644.87300000</i>
   <i name="EDIFF">      0.00001000</i>
   <i type="int" name="IALGO">    38</i>
   <i type="int" name="IWAVPR">    10</i>
   <i type="int" name="NBANDS">   128</i>
   <i name="NELECT">    186.00000000</i>
   <i type="int" name="TURBO">     0</i>
   <i type="int" name="IRESTART">     0</i>
   <i type="int" name="NREBOOT">     0</i>
   <i type="int" name="NMIN">     0</i>
   <i name="EREF">      0.00000000</i>
   <separator name="electronic smearing" >
    <i type="int" name="ISMEAR">     0</i>
    <i name="SIGMA">      0.01000000</i>
    <i name="KSPACING">      0.50000000</i>
    <i type="logical" name="KGAMMA"> T  </i>
   </separator>
   <separator name="electronic projectors" >
    <i type="logical" name="LREAL"> T  </i>
    <v name="ROPT">     -0.00040000     -0.00040000     -0.00040000</v>
    <i type="int" name="LMAXPAW">  -100</i>
    <i type="int" name="LMAXMIX">     2</i>
    <i type="logical" name="NLSPLINE"> F  </i>
   </separator>
   <separator name="electronic startup" >
    <i type="int" name="ISTART">     1</i>
    <i type="int" name="ICHARG">    11</i>
    <i type="int" name="INIWAV">     1</i>
   </separator>
   <separator name="electronic spin" >
    <i type="int" name="ISPIN">     1</i>
    <i type="logical" name="LNONCOLLINEAR"> F  </i>
    <v name="MAGMOM">      1.00000000      1.00000000      1.00000000      1.00000000      1.00000000      1.00000000      1.00000000      1.00000000      1.00000000      1.00000000      1.00000000      1.00000000      1.00000000      1.00000000      1.00000000      1.00000000      1.00000000      1.00000000      1.00000000      1.00000000
      1.00000000      1.00000000      1.00000000      1.00000000      1.00000000      1.00000000      1.00000000      1.00000000      1.00000000      1.00000000      1.00000000      1.00000000      1.00000000      1.00000000      1.00000000      1.00000000      1.00000000      1.00000000      1.00000000      1.00000000
      1.00000000      1.00000000      1.00000000      1.00000000      1.00000000      1.00000000      1.00000000      1.00000000      1.00000000      1.00000000      1.00000000      1.00000000      1.00000000      1.00000000      1.00000000      1.00000000      1.00000000</v>
    <i name="NUPDOWN">     -1.00000000</i>
    <i type="logical" name="LSORBIT"> F  </i>
    <v name="SAXIS">      0.00000000      0.00000000      1.00000000</v>
    <i type="logical" name="LSPIRAL"> F  </i>
    <v name="QSPIRAL">      0.00000000      0.00000000      0.00000000</v>
    <i type="logical" name="LZEROZ"> F  </i>
   </separator>
   <separator name="electronic exchange-correlation" >
    <i type="logical" name="LASPH"> F  </i>
    <i type="logical" name="LMETAGGA"> F  </i>
   </separator>
   <separator name="electronic convergence" >
    <i type="int" name="NELM">   200</i>
    <i type="int" name="NELMDL">     0</i>
    <i type="int" name="NELMIN">     2</i>
    <i name="ENINI">    500.00000000</i>
    <separator name="electronic convergence detail" >
     <i type="logical" name="LDIAG"> T  </i>
     <i type="logical" name="LSUBROT"> F  </i>
     <i name="WEIMIN">      0.00000000</i>
     <i name="EBREAK">      0.00000002</i>
     <i name="DEPER">      0.30000000</i>
     <i type="int" name="NRMM">     4</i>
     <i name="TIME">      0.40000000</i>
    </separator>
   </separator>
   <separator name="electronic mixer" >
    <i name="AMIX">      0.40000000</i>
    <i name="BMIX">      1.00000000</i>
    <i name="AMIN">      0.10000000</i>
    <i name="AMIX_MAG">      1.60000000</i>
    <i name="BMIX_MAG">      1.00000000</i>
    <separator name="electronic mixer details" >
     <i type="int" name="IMIX">     4</i>
     <i type="logical" name="MIXFIRST"> F  </i>
     <i type="int" name="MAXMIX">   -45</i>
     <i name="WC">    100.00000000</i>
     <i type="int" name="INIMIX">     1</i>
     <i type="int" name="MIXPRE">     1</i>
     <i type="int" name="MREMOVE">     5</i>
    </separator>
   </separator>
   <separator name="electronic dipolcorrection" >
    <i type="logical" name="LDIPOL"> F  </i>
    <i type="logical" name="LMONO"> F  </i>
    <i type="int" name="IDIPOL">     0</i>
    <i name="EPSILON">      1.00000000</i>
    <v name="DIPOL">   -100.00000000   -100.00000000   -100.00000000</v>
    <i name="EFIELD">      0.00000000</i>
   </separator>
  </separator>
  <separator name="grids" >
   <i type="int" name="NGX">   108</i>
   <i type="int" name="NGY">   108</i>
   <i type="int" name="NGZ">   150</i>
   <i type="int" name="NGXF">   160</i>
   <i type="int" name="NGYF">   160</i>
   <i type="int" name="NGZF">   224</i>
   <i type="logical" name="ADDGRID"> F  </i>
  </separator>
  <separator name="ionic" >
   <i type="int" name="NSW">     0</i>
   <i type="int" name="IBRION">    -1</i>
   <i type="int" name="MDALGO">     0</i>
   <i type="int" name="ISIF">     2</i>
   <i name="PSTRESS">      0.00000000</i>
   <i name="EDIFFG">     -0.01000000</i>
   <i type="int" name="NFREE">     0</i>
   <i name="POTIM">      0.30000000</i>
   <i name="SMASS">     -3.00000000</i>
   <i name="SCALEE">      1.00000000</i>
  </separator>
  <separator name="ionic md" >
   <i name="TEBEG">      0.00010000</i>
   <i name="TEEND">      0.00010000</i>
   <i type="int" name="NBLOCK">     1</i>
   <i type="int" name="KBLOCK">     1</i>
   <i type="int" name="NPACO">   256</i>
   <i name="APACO">     16.00000000</i>
  </separator>
  <separator name="symmetry" >
   <i type="int" name="ISYM">     2</i>
   <i name="SYMPREC">      0.00001000</i>
  </separator>
  <separator name="dos" >
   <i type="int" name="LORBIT">     0</i>
   <v name="RWIGS">     -1.00000000     -1.00000000     -1.00000000</v>
   <i type="int" name="NEDOS">   301</i>
   <i name="EMIN">     10.00000000</i>
   <i name="EMAX">    -10.00000000</i>
   <i name="EFERMI">      0.00000000</i>
  </separator>
  <separator name="writing" >
   <i type="int" name="NWRITE">     0</i>
   <i type="logical" name="LWAVE"> F  </i>
   <i type="logical" name="LDOWNSAMPLE"> F  </i>
   <i type="logical" name="LCHARG"> F  </i>
   <i type="logical" name="LPARD"> F  </i>
   <i type="logical" name="LVTOT"> F  </i>
   <i type="logical" name="LVHAR"> F  </i>
   <i type="logical" name="LELF"> F  </i>
   <i type="logical" name="LOPTICS"> F  </i>
   <v name="STM">      0.00000000      0.00000000      0.00000000      0.00000000      0.00000000      0.00000000      0.00000000</v>
  </separator>
  <separator name="performance" >
   <i type="int" name="NPAR">    16</i>
   <i type="int" name="NSIM">     4</i>
   <i type="int" name="NBLK">    -1</i>
   <i type="logical" name="LPLANE"> T  </i>
   <i type="logical" name="LSCALAPACK"> T  </i>
   <i type="logical" name="LSCAAWARE"> F  </i>
   <i type="logical" name="LSCALU"> F  </i>
   <i type="logical" name="LASYNC"> F  </i>
   <i type="logical" name="LORBITALREAL"> F  </i>
  </separator>
  <separator name="miscellaneous" >
   <i type="int" name="IDIOT">     3</i>
   <i type="int" name="ISPECIAL">     0</i>
   <i type="logical" name="LMUSIC"> F  </i>
   <v name="POMASS">     14.00100000     12.01100000      1.00000000</v>
   <v name="DARWINR">      0.00000000      0.00000000      0.00000000</v>
   <v name="DARWINV">      1.00000000      1.00000000      1.00000000</v>
   <i type="logical" name="LCORR"> T  </i>
  </separator>
  <i type="logical" name="GGA_COMPAT"> T  </i>
  <i type="logical" name="LBERRY"> F  </i>
  <i type="int" name="ICORELEVEL">     0</i>
  <i type="logical" name="LDAU"> F  </i>
  <i type="int" name="I_CONSTRAINED_M">     0</i>
  <separator name="electronic exchange-correlation" >
   <i type="string" name="GGA">PE</i>
   <i type="int" name="VOSKOWN">     0</i>
   <i type="logical" name="LHFCALC"> F  </i>
   <i type="string" name="PRECFOCK"></i>
   <i type="logical" name="LSYMGRAD"> F  </i>
   <i type="logical" name="LHFONE"> F  </i>
   <i type="logical" name="LRHFCALC"> F  </i>
   <i type="logical" name="LTHOMAS"> F  </i>
   <i type="logical" name="LMODELHF"> F  </i>
   <i name="ENCUT4O">     -1.00000000</i>
   <i type="int" name="EXXOEP">     0</i>
   <i type="int" name="FOURORBIT">     0</i>
   <i name="AEXX">      0.00000000</i>
   <i name="HFALPHA">      0.00000000</i>
   <i name="MCALPHA">      0.00000000</i>
   <i name="ALDAX">      1.00000000</i>
   <i name="AGGAX">      1.00000000</i>
   <i name="ALDAC">      1.00000000</i>
   <i name="AGGAC">      1.00000000</i>
   <i type="int" name="NKREDX">     1</i>
   <i type="int" name="NKREDY">     1</i>
   <i type="int" name="NKREDZ">     1</i>
   <i type="logical" name="SHIFTRED"> F  </i>
   <i type="logical" name="ODDONLY"> F  </i>
   <i type="logical" name="EVENONLY"> F  </i>
   <i type="int" name="LMAXFOCK">     0</i>
   <i type="int" name="NMAXFOCKAE">     0</i>
   <i type="logical" name="LFOCKAEDFT"> F  </i>
   <i name="HFSCREEN">      0.00000000</i>
   <i name="HFSCREENC">      0.00000000</i>
   <i type="int" name="NBANDSGWLOW">     0</i>
  </separator>
  <separator name="vdW DFT" >
   <i type="logical" name="LUSE_VDW"> F  </i>
   <i name="Zab_VDW">     -0.84910000</i>
   <i name="PARAM1">      0.12340000</i>
   <i name="PARAM2">      1.00000000</i>
   <i name="PARAM3">      0.00000000</i>
  </separator>
  <separator name="model GW" >
   <i type="int" name="MODEL_GW">     0</i>
   <i name="MODEL_EPS0">     37.38517086</i>
   <i name="MODEL_ALPHA">      1.00000000</i>
  </separator>
  <separator name="linear response parameters" >
   <i type="logical" name="LEPSILON"> F  </i>
   <i type="logical" name="LRPA"> F  </i>
   <i type="logical" name="LNABLA"> F  </i>
   <i type="logical" name="LVEL"> F  </i>
   <i type="int" name="KINTER">     0</i>
   <i name="CSHIFT">      0.10000000</i>
   <i name="OMEGAMAX">     -1.00000000</i>
   <i name="DEG_THRESHOLD">      0.00200000</i>
   <i name="RTIME">     -0.10000000</i>
   <i name="WPLASMAI">      0.00000000</i>
   <v name="DFIELD">      0.00000000      0.00000000      0.00000000</v>
   <v name="WPLASMA">      0.00000000      0.00000000      0.00000000      0.00000000      0.00000000      0.00000000      0.00000000      0.00000000      0.00000000</v>
  </separator>
  <separator name="orbital magnetization" >
   <i type="logical" name="NUCIND"> F  </i>
   <v name="MAGPOS">      0.00000000      0.00000000      0.00000000</v>
   <i type="logical" name="LNICSALL"> T  </i>
   <i type="logical" name="ORBITALMAG"> F  </i>
   <i type="logical" name="LMAGBLOCH"> F  </i>
   <i type="logical" name="LCHIMAG"> F  </i>
   <i type="logical" name="LGAUGE"> T  </i>
   <i type="int" name="MAGATOM">     0</i>
   <v name="MAGDIPOL">      0.00000000      0.00000000      0.00000000</v>
   <v name="AVECCONST">      0.00000000      0.00000000      0.00000000</v>
  </separator>
  <separator name="response functions" >
   <i type="logical" name="LADDER"> F  </i>
   <i type="logical" name="LRPAFORCE"> F  </i>
   <i type="logical" name="LFXC"> F  </i>
   <i type="logical" name="LHARTREE"> T  </i>
   <i type="int" name="IBSE">     0</i>
   <v type="int" name="KPOINT">    -1     0     0     0</v>
   <i type="logical" name="LTCTE"> F  </i>
   <i type="logical" name="LTETE"> F  </i>
   <i type="logical" name="LTRIPLET"> F  </i>
   <i type="logical" name="LFXCEPS"> F  </i>
   <i type="logical" name="LFXHEG"> F  </i>
   <i type="int" name="NATURALO">     2</i>
   <i type="logical" name="L2ORDER"> F  </i>
   <i type="logical" name="LMP2LT"> F  </i>
   <i type="logical" name="LUSEW"> F  </i>
   <i name="ENCUTGW">     -2.00000000</i>
   <i name="ENCUTGWSOFT">     -2.00000000</i>
   <i name="ENCUTLF">     -1.00000000</i>
   <i type="int" name="LMAXMP2">    -1</i>
   <i name="SCISSOR">      0.00000000</i>
   <i type="int" name="NOMEGA">     0</i>
   <i type="int" name="NOMEGAR">     0</i>
   <i type="int" name="NBANDSGW">    -1</i>
   <i type="int" name="NBANDSO">    -1</i>
   <i type="int" name="NBANDSV">    -1</i>
   <i type="int" name="NELM">   200</i>
   <i type="int" name="NELMHF">     1</i>
   <i type="int" name="DIM">     3</i>
   <i type="int" name="ANTIRES">     0</i>
   <i name="OMEGAMAX">    -30.00000000</i>
   <i name="OMEGAMIN">    -30.00000000</i>
   <i name="OMEGATL">   -200.00000000</i>
   <i type="int" name="OMEGAGRID">   140</i>
   <i name="CSHIFT">     -0.10000000</i>
   <i type="logical" name="SELFENERGY"> F  </i>
   <i type="logical" name="LSPECTRAL"> F  </i>
   <i type="logical" name="LSPECTRALGW"> F  </i>
   <i type="logical" name="LSINGLES"> F  </i>
   <i type="logical" name="LFERMIGW"> F  </i>
   <i type="logical" name="ODDONLYGW"> F  </i>
   <i type="logical" name="EVENONLYGW"> F  </i>
   <i type="int" name="NKREDLFX">     1</i>
   <i type="int" name="NKREDLFY">     1</i>
   <i type="int" name="NKREDLFZ">     1</i>
   <i type="int" name="MAXMEM">  2800</i>
   <i type="int" name="TELESCOPE">     0</i>
   <i type="int" name="TAUPAR">     1</i>
   <i type="int" name="OMEGAPAR">    -1</i>
   <i name="LAMBDA">      1.00000000</i>
  </separator>
  <separator name="External order field" >
   <i name="OFIELD_KAPPA">      0.00000000</i>
   <v name="OFIELD_K">      0.00000000      0.00000000      0.00000000</v>
   <i name="OFIELD_Q6_NEAR">      0.00000000</i>
   <i name="OFIELD_Q6_FAR">      0.00000000</i>
   <i name="OFIELD_A">      0.00000000</i>
  </separator>
  <separator name="solvation model" >
   <i type="logical" name="LSOL"> F  </i>
  </separator>
 </parameters>
 <atominfo>
  <atoms>      57 </atoms>
  <types>       3 </types>
  <array name="atoms" >
   <dimension dim="1">ion</dimension>
   <field type="string">element</field>
   <field type="int">atomtype</field>
   <set>
    <rc><c>N </c><c>   1</c></rc>
    <rc><c>N </c><c>   1</c></rc>
    <rc><c>N </c><c>   1</c></rc>
    <rc><c>N </c><c>   1</c></rc>
    <rc><c>N </c><c>   1</c></rc>
    <rc><c>N </c><c>   1</c></rc>
    <rc><c>N </c><c>   1</c></rc>
    <rc><c>N </c><c>   1</c></rc>
    <rc><c>N </c><c>   1</c></rc>
    <rc><c>N </c><c>   1</c></rc>
    <rc><c>N </c><c>   1</c></rc>
    <rc><c>N </c><c>   1</c></rc>
    <rc><c>C </c><c>   2</c></rc>
    <rc><c>C </c><c>   2</c></rc>
    <rc><c>C </c><c>   2</c></rc>
    <rc><c>C </c><c>   2</c></rc>
    <rc><c>C </c><c>   2</c></rc>
    <rc><c>C </c><c>   2</c></rc>
    <rc><c>C </c><c>   2</c></rc>
    <rc><c>C </c><c>   2</c></rc>
    <rc><c>C </c><c>   2</c></rc>
    <rc><c>C </c><c>   2</c></rc>
    <rc><c>C </c><c>   2</c></rc>
    <rc><c>C </c><c>   2</c></rc>
    <rc><c>C </c><c>   2</c></rc>
    <rc><c>C </c><c>   2</c></rc>
    <rc><c>C </c><c>   2</c></rc>
    <rc><c>C </c><c>   2</c></rc>
    <rc><c>C </c><c>   2</c></rc>
    <rc><c>C </c><c>   2</c></rc>
    <rc><c>C </c><c>   2</c></rc>
    <rc><c>C </c><c>   2</c></rc>
    <rc><c>C </c><c>   2</c></rc>
    <rc><c>C </c><c>   2</c></rc>
    <rc><c>C </c><c>   2</c></rc>
    <rc><c>C </c><c>   2</c></rc>
    <rc><c>C </c><c>   2</c></rc>
    <rc><c>C </c><c>   2</c></rc>
    <rc><c>C </c><c>   2</c></rc>
    <rc><c>H </c><c>   3</c></rc>
    <rc><c>H </c><c>   3</c></rc>
    <rc><c>H </c><c>   3</c></rc>
    <rc><c>H </c><c>   3</c></rc>
    <rc><c>H </c><c>   3</c></rc>
    <rc><c>H </c><c>   3</c></rc>
    <rc><c>H </c><c>   3</c></rc>
    <rc><c>H </c><c>   3</c></rc>
    <rc><c>H </c><c>   3</c></rc>
    <rc><c>H </c><c>   3</c></rc>
    <rc><c>H </c><c>   3</c></rc>
    <rc><c>H </c><c>   3</c></rc>
    <rc><c>H </c><c>   3</c></rc>
    <rc><c>H </c><c>   3</c></rc>
    <rc><c>H </c><c>   3</c></rc>
    <rc><c>H </c><c>   3</c></rc>
    <rc><c>H </c><c>   3</c></rc>
    <rc><c>H </c><c>   3</c></rc>
   </set>
  </array>
  <array name="atomtypes" >
   <dimension dim="1">type</dimension>
   <field type="int">atomspertype</field>
   <field type="string">element</field>
   <field>mass</field>
   <field>valence</field>
   <field type="string">pseudopotential</field>
   <set>
    <rc><c>  12</c><c>N </c><c>     14.00100000</c><c>      5.00000000</c><c>  PAW_PBE N 08Apr2002                   </c></rc>
    <rc><c>  27</c><c>C </c><c>     12.01100000</c><c>      4.00000000</c><c>  PAW_PBE C 08Apr2002                   </c></rc>
    <rc><c>  18</c><c>H </c><c>      1.00000000</c><c>      1.00000000</c><c>  PAW_PBE H 15Jun2001                   </c></rc>
   </set>
  </array>
 </atominfo>
 <structure name="initialpos" >
  <crystal>
   <varray name="basis" >
    <v>      14.31960947      -0.00000004       0.00000000 </v>
    <v>      -7.15980470      12.40114559       0.00000000 </v>
    <v>       0.00000000       0.00000000      20.00000000 </v>
   </varray>
   <i name="volume">   3551.59123146 </i>
   <varray name="rec_basis" >
    <v>       0.06983431       0.04031886       0.00000000 </v>
    <v>       0.00000000       0.08063771       0.00000000 </v>
    <v>       0.00000000       0.00000000       0.05000000 </v>
   </varray>
  </crystal>
  <varray name="positions" >
   <v>       0.61857329       0.22277421       0.46916905 </v>
   <v>       0.60420091       0.38142671       0.46916905 </v>
   <v>       0.77722579       0.39579909       0.46916905 </v>
   <v>       0.05788784       0.11108682       0.47143213 </v>
   <v>       0.05319898       0.94211216       0.47143213 </v>
   <v>       0.88891318       0.94680102       0.47143213 </v>
   <v>       0.78701340       0.72912743       0.44009133 </v>
   <v>       0.94211404       0.21298660       0.44009133 </v>
   <v>       0.27087257       0.05788596       0.44009133 </v>
   <v>       0.92778237       0.72255894       0.50072030 </v>
   <v>       0.79477657       0.07221763       0.50072030 </v>
   <v>       0.27744106       0.20522343       0.50072030 </v>
   <v>       0.37926467       0.10657801       0.43766979 </v>
   <v>       0.42375311       0.04891765       0.40038183 </v>
   <v>       0.36119952       0.92572448       0.40109956 </v>
   <v>       0.38465445       0.25366900       0.49896491 </v>
   <v>       0.44202466       0.20916021       0.46829862 </v>
   <v>       0.36288283       0.98360269       0.33881859 </v>
   <v>       0.72669800       0.28761744       0.46891021 </v>
   <v>       0.56091944       0.27330200       0.46891021 </v>
   <v>       0.71238256       0.43908056       0.46891021 </v>
   <v>       0.94969220       0.05461606       0.47142442 </v>
   <v>       0.10492385       0.05030780       0.47142442 </v>
   <v>       0.94538394       0.89507615       0.47142442 </v>
   <v>       0.72731334       0.62073533       0.43766979 </v>
   <v>       0.76713556       0.55797534       0.46829862 </v>
   <v>       0.88230399       0.77416485       0.47074177 </v>
   <v>       0.62516454       0.57624689       0.40038183 </v>
   <v>       0.56452496       0.63880048       0.40109956 </v>
   <v>       0.62071987       0.63711717       0.33881859 </v>
   <v>       0.89342199       0.27268666       0.43766979 </v>
   <v>       0.79083979       0.23286444       0.46829862 </v>
   <v>       0.89186086       0.11769601       0.47074177 </v>
   <v>       0.95108235       0.37483546       0.40038183 </v>
   <v>       0.07427552       0.43547504       0.40109956 </v>
   <v>       0.01639731       0.37928013       0.33881859 </v>
   <v>       0.22583515       0.10813914       0.47074177 </v>
   <v>       0.86901455       0.61534555       0.49896491 </v>
   <v>       0.74633100       0.13098545       0.49896491 </v>
   <v>       0.40954223       0.88648624       0.40369935 </v>
   <v>       0.42934705       0.33226748       0.52341741 </v>
   <v>       0.51100974       0.08696916       0.39983564 </v>
   <v>       0.28958986       0.98499221       0.32617506 </v>
   <v>       0.57334407       0.58752314       0.29686256 </v>
   <v>       0.47694401       0.59045777       0.40369935 </v>
   <v>       0.57595943       0.48899026       0.39983564 </v>
   <v>       0.69540235       0.71041014       0.32617506 </v>
   <v>       0.60210764       0.71322556       0.43006526 </v>
   <v>       0.91303084       0.42404057       0.39983564 </v>
   <v>       0.01417906       0.42665593       0.29686256 </v>
   <v>       0.01500779       0.30459765       0.32617506 </v>
   <v>       0.11111792       0.39789236       0.43006526 </v>
   <v>       0.11351376       0.52305599       0.40369935 </v>
   <v>       0.41247686       0.98582094       0.29686256 </v>
   <v>       0.28677444       0.88888208       0.43006526 </v>
   <v>       0.90292043       0.57065295       0.52341741 </v>
   <v>       0.66773252       0.09707957       0.52341741 </v>
  </varray>
 </structure>
 <calculation>
  <scstep>
   <time name="dav">   31.88   32.12</time>
   <time name="total">   31.97   32.21</time>
   <energy>
    <i name="alphaZ">     44.87827732 </i>
    <i name="ewald">  21150.60254899 </i>
    <i name="hartreedc"> -27283.77617480 </i>
    <i name="XCdc">    665.00463669 </i>
    <i name="pawpsdc">  17518.08866640 </i>
    <i name="pawaedc"> -17553.52280765 </i>
    <i name="eentropy">     -0.00000000 </i>
    <i name="bandstr">  -2317.13838571 </i>
    <i name="atom">   7372.18131649 </i>
    <i name="e_fr_energy">   -403.68192226 </i>
    <i name="e_wo_entrp">   -403.68192226 </i>
    <i name="e_0_energy">   -403.68192226 </i>
   </energy>
  </scstep>
  <scstep>
   <time name="dav">   34.19   34.43</time>
   <time name="total">   34.19   34.43</time>
   <energy>
    <i name="e_fr_energy">   -404.20006106 </i>
    <i name="e_wo_entrp">   -404.20006106 </i>
    <i name="e_0_energy">   -404.20006106 </i>
   </energy>
  </scstep>
  <scstep>
   <time name="dav">   36.90   37.17</time>
   <time name="total">   36.91   37.17</time>
   <energy>
    <i name="e_fr_energy">   -404.21192931 </i>
    <i name="e_wo_entrp">   -404.21192931 </i>
    <i name="e_0_energy">   -404.21192931 </i>
   </energy>
  </scstep>
  <scstep>
   <time name="dav">   33.24   33.47</time>
   <time name="total">   33.24   33.48</time>
   <energy>
    <i name="e_fr_energy">   -404.21211573 </i>
    <i name="e_wo_entrp">   -404.21211573 </i>
    <i name="e_0_energy">   -404.21211573 </i>
   </energy>
  </scstep>
  <scstep>
   <time name="dav">   32.95   33.18</time>
   <time name="total">   32.95   33.19</time>
   <energy>
    <i name="alphaZ">     44.87827732 </i>
    <i name="ewald">  21150.60254899 </i>
    <i name="hartreedc"> -27283.77617480 </i>
    <i name="XCdc">    665.00463669 </i>
    <i name="pawpsdc">  17518.08866640 </i>
    <i name="pawaedc"> -17553.52280765 </i>
    <i name="eentropy">     -0.00000000 </i>
    <i name="bandstr">  -2317.66858835 </i>
    <i name="atom">   7372.18131649 </i>
    <i name="e_fr_energy">   -404.21212491 </i>
    <i name="e_wo_entrp">   -404.21212491 </i>
    <i name="e_0_energy">   -404.21212491 </i>
   </energy>
  </scstep>
  <structure>
   <crystal>
    <varray name="basis" >
     <v>      14.31960947      -0.00000004       0.00000000 </v>
     <v>      -7.15980470      12.40114559       0.00000000 </v>
     <v>       0.00000000       0.00000000      20.00000000 </v>
    </varray>
    <i name="volume">   3551.59123146 </i>
    <varray name="rec_basis" >
     <v>       0.06983431       0.04031886       0.00000000 </v>
     <v>       0.00000000       0.08063771       0.00000000 </v>
     <v>       0.00000000       0.00000000       0.05000000 </v>
    </varray>
   </crystal>
   <varray name="positions" >
    <v>       0.61857329       0.22277421       0.46916905 </v>
    <v>       0.60420091       0.38142671       0.46916905 </v>
    <v>       0.77722579       0.39579909       0.46916905 </v>
    <v>       0.05788784       0.11108682       0.47143213 </v>
    <v>       0.05319898       0.94211216       0.47143213 </v>
    <v>       0.88891318       0.94680102       0.47143213 </v>
    <v>       0.78701340       0.72912743       0.44009133 </v>
    <v>       0.94211404       0.21298660       0.44009133 </v>
    <v>       0.27087257       0.05788596       0.44009133 </v>
    <v>       0.92778237       0.72255894       0.50072030 </v>
    <v>       0.79477657       0.07221763       0.50072030 </v>
    <v>       0.27744106       0.20522343       0.50072030 </v>
    <v>       0.37926467       0.10657801       0.43766979 </v>
    <v>       0.42375311       0.04891765       0.40038183 </v>
    <v>       0.36119952       0.92572448       0.40109956 </v>
    <v>       0.38465445       0.25366900       0.49896491 </v>
    <v>       0.44202466       0.20916021       0.46829862 </v>
    <v>       0.36288283       0.98360269       0.33881859 </v>
    <v>       0.72669800       0.28761744       0.46891021 </v>
    <v>       0.56091944       0.27330200       0.46891021 </v>
    <v>       0.71238256       0.43908056       0.46891021 </v>
    <v>       0.94969220       0.05461606       0.47142442 </v>
    <v>       0.10492385       0.05030780       0.47142442 </v>
    <v>       0.94538394       0.89507615       0.47142442 </v>
    <v>       0.72731334       0.62073533       0.43766979 </v>
    <v>       0.76713556       0.55797534       0.46829862 </v>
    <v>       0.88230399       0.77416485       0.47074177 </v>
    <v>       0.62516454       0.57624689       0.40038183 </v>
    <v>       0.56452496       0.63880048       0.40109956 </v>
    <v>       0.62071987       0.63711717       0.33881859 </v>
    <v>       0.89342199       0.27268666       0.43766979 </v>
    <v>       0.79083979       0.23286444       0.46829862 </v>
    <v>       0.89186086       0.11769601       0.47074177 </v>
    <v>       0.95108235       0.37483546       0.40038183 </v>
    <v>       0.07427552       0.43547504       0.40109956 </v>
    <v>       0.01639731       0.37928013       0.33881859 </v>
    <v>       0.22583515       0.10813914       0.47074177 </v>
    <v>       0.86901455       0.61534555       0.49896491 </v>
    <v>       0.74633100       0.13098545       0.49896491 </v>
    <v>       0.40954223       0.88648624       0.40369935 </v>
    <v>       0.42934705       0.33226748       0.52341741 </v>
    <v>       0.51100974       0.08696916       0.39983564 </v>
    <v>       0.28958986       0.98499221       0.32617506 </v>
    <v>       0.57334407       0.58752314       0.29686256 </v>
    <v>       0.47694401       0.59045777       0.40369935 </v>
    <v>       0.57595943       0.48899026       0.39983564 </v>
    <v>       0.69540235       0.71041014       0.32617506 </v>
    <v>       0.60210764       0.71322556       0.43006526 </v>
    <v>       0.91303084       0.42404057       0.39983564 </v>
    <v>       0.01417906       0.42665593       0.29686256 </v>
    <v>       0.01500779       0.30459765       0.32617506 </v>
    <v>       0.11111792       0.39789236       0.43006526 </v>
    <v>       0.11351376       0.52305599       0.40369935 </v>
    <v>       0.41247686       0.98582094       0.29686256 </v>
    <v>       0.28677444       0.88888208       0.43006526 </v>
    <v>       0.90292043       0.57065295       0.52341741 </v>
    <v>       0.66773252       0.09707957       0.52341741 </v>
   </varray>
  </structure>
  <varray name="forces" >
   <v>       0.00388835      -0.00094131       0.00160646 </v>
   <v>      -0.00275938      -0.00289676       0.00160646 </v>
   <v>      -0.00112898       0.00383807       0.00160646 </v>
   <v>      -0.00330353       0.00236514      -0.00685599 </v>
   <v>       0.00370003       0.00167837      -0.00685599 </v>
   <v>      -0.00039651      -0.00404351      -0.00685599 </v>
   <v>       0.00082880      -0.00061664      -0.00530373 </v>
   <v>      -0.00094842      -0.00040944      -0.00530373 </v>
   <v>       0.00011963       0.00102608      -0.00530373 </v>
   <v>      -0.00315494       0.00785409      -0.00074534 </v>
   <v>       0.00837931      -0.00119479      -0.00074534 </v>
   <v>      -0.00522438      -0.00665930      -0.00074534 </v>
   <v>       0.00677663       0.00498967       0.00282575 </v>
   <v>      -0.00362708      -0.00148017      -0.00052755 </v>
   <v>      -0.00107281      -0.00230213      -0.00113990 </v>
   <v>       0.00489667       0.00375979      -0.00212375 </v>
   <v>      -0.00140263      -0.00067915      -0.00149294 </v>
   <v>       0.00166691       0.00210644       0.00529601 </v>
   <v>       0.00563233       0.00423240       0.00165262 </v>
   <v>       0.00084920      -0.00699394       0.00165262 </v>
   <v>      -0.00648153       0.00276154       0.00165262 </v>
   <v>      -0.00204094      -0.00034780       0.00456503 </v>
   <v>       0.00071926       0.00194141       0.00456503 </v>
   <v>       0.00132168      -0.00159360       0.00456503 </v>
   <v>       0.00093287      -0.00836357       0.00282575 </v>
   <v>       0.00011316       0.00155429      -0.00149294 </v>
   <v>       0.00164151       0.00002166       0.00082035 </v>
   <v>       0.00053168       0.00388123      -0.00052755 </v>
   <v>      -0.00145730       0.00208015      -0.00113990 </v>
   <v>       0.00099078      -0.00249681       0.00529601 </v>
   <v>      -0.00770950       0.00337390       0.00282575 </v>
   <v>       0.00128947      -0.00087514      -0.00149294 </v>
   <v>      -0.00080200      -0.00143241       0.00082035 </v>
   <v>       0.00309540      -0.00240106      -0.00052755 </v>
   <v>       0.00253011       0.00022198      -0.00113990 </v>
   <v>      -0.00265769       0.00039037       0.00529601 </v>
   <v>      -0.00083951       0.00141076       0.00082035 </v>
   <v>       0.00080774      -0.00612054      -0.00212375 </v>
   <v>      -0.00570441       0.00236074      -0.00212375 </v>
   <v>       0.00247848      -0.00313778       0.00261270 </v>
   <v>       0.00154062      -0.00502770      -0.00377868 </v>
   <v>       0.00011339       0.00047535      -0.00339084 </v>
   <v>      -0.00360014      -0.00515696       0.00121061 </v>
   <v>      -0.00358926       0.00334942      -0.00220145 </v>
   <v>      -0.00395663      -0.00057753       0.00261270 </v>
   <v>       0.00035497      -0.00033588      -0.00339084 </v>
   <v>      -0.00266599       0.00569629       0.00121061 </v>
   <v>      -0.00282141       0.00022594       0.00697065 </v>
   <v>      -0.00046836      -0.00013948      -0.00339084 </v>
   <v>       0.00469531       0.00143368      -0.00220145 </v>
   <v>       0.00626613      -0.00053933       0.00121061 </v>
   <v>       0.00160638       0.00233044       0.00697065 </v>
   <v>       0.00147816       0.00371531       0.00261270 </v>
   <v>      -0.00110605      -0.00478310      -0.00220145 </v>
   <v>       0.00121503      -0.00255638       0.00697065 </v>
   <v>      -0.00512443       0.00117963      -0.00377868 </v>
   <v>       0.00358381       0.00384807      -0.00377868 </v>
  </varray>
  <varray name="stress" >
   <v>      -0.02513094      -0.00000000      -0.00000000 </v>
   <v>       0.00000000      -0.02513094       0.00000000 </v>
   <v>      -0.00000000      -0.00000000      -0.35385113 </v>
  </varray>
  <energy>
   <i name="e_fr_energy">   -405.42797673 </i>
   <i name="e_wo_entrp">   -405.42797673 </i>
   <i name="e_0_energy">     -0.00000000 </i>
  </energy>
  <time name="totalsc">  191.67  193.10</time>
  <eigenvalues>
   <array>
    <dimension dim="1">band</dimension>
    <dimension dim="2">kpoint</dimension>
    <dimension dim="3">spin</dimension>
    <field>eigene</field>
    <field>occ</field>
    <set>
     <set comment="spin 1">
      <set comment="kpoint 1">
       <r>  -25.3399    1.0000 </r>
       <r>  -25.1483    1.0000 </r>
       <r>  -24.2631    1.0000 </r>
       <r>  -24.2629    1.0000 </r>
       <r>  -24.0329    1.0000 </r>
       <r>  -22.3658    1.0000 </r>
       <r>  -22.3657    1.0000 </r>
       <r>  -21.9944    1.0000 </r>
       <r>  -21.9943    1.0000 </r>
       <r>  -21.8638    1.0000 </r>
       <r>  -21.7605    1.0000 </r>
       <r>  -21.7604    1.0000 </r>
       <r>  -20.6878    1.0000 </r>
       <r>  -20.6702    1.0000 </r>
       <r>  -20.6701    1.0000 </r>
       <r>  -19.5413    1.0000 </r>
       <r>  -19.5412    1.0000 </r>
       <r>  -19.3676    1.0000 </r>
       <r>  -17.7025    1.0000 </r>
       <r>  -17.7025    1.0000 </r>
       <r>  -16.5546    1.0000 </r>
       <r>  -16.3204    1.0000 </r>
       <r>  -16.3204    1.0000 </r>
       <r>  -16.2750    1.0000 </r>
       <r>  -15.8580    1.0000 </r>
       <r>  -15.8579    1.0000 </r>
       <r>  -14.5914    1.0000 </r>
       <r>  -14.5913    1.0000 </r>
       <r>  -14.2164    1.0000 </r>
       <r>  -14.0264    1.0000 </r>
       <r>  -14.0264    1.0000 </r>
       <r>  -14.0262    1.0000 </r>
       <r>  -13.8459    1.0000 </r>
       <r>  -13.7008    1.0000 </r>
       <r>  -13.7008    1.0000 </r>
       <r>  -12.9817    1.0000 </r>
       <r>  -12.8131    1.0000 </r>
       <r>  -12.6997    1.0000 </r>
       <r>  -12.4038    1.0000 </r>
       <r>  -12.4038    1.0000 </r>
       <r>  -11.8904    1.0000 </r>
       <r>  -11.7763    1.0000 </r>
       <r>  -11.7762    1.0000 </r>
       <r>  -11.2336    1.0000 </r>
       <r>  -11.0802    1.0000 </r>
       <r>  -11.0802    1.0000 </r>
       <r>  -10.9501    1.0000 </r>
       <r>  -10.7261    1.0000 </r>
       <r>  -10.6189    1.0000 </r>
       <r>  -10.5249    1.0000 </r>
       <r>  -10.5248    1.0000 </r>
       <r>  -10.3352    1.0000 </r>
       <r>  -10.3351    1.0000 </r>
       <r>  -10.1033    1.0000 </r>
       <r>  -10.1033    1.0000 </r>
       <r>   -9.7420    1.0000 </r>
       <r>   -9.6247    1.0000 </r>
       <r>   -9.2515    1.0000 </r>
       <r>   -9.2514    1.0000 </r>
       <r>   -9.0353    1.0000 </r>
       <r>   -8.6901    1.0000 </r>
       <r>   -8.6901    1.0000 </r>
       <r>   -8.3172    1.0000 </r>
       <r>   -8.3172    1.0000 </r>
       <r>   -8.2685    1.0000 </r>
       <r>   -8.2266    1.0000 </r>
       <r>   -8.2265    1.0000 </r>
       <r>   -8.2237    1.0000 </r>
       <r>   -8.0304    1.0000 </r>
       <r>   -7.7374    1.0000 </r>
       <r>   -7.7373    1.0000 </r>
       <r>   -7.6941    1.0000 </r>
       <r>   -7.5509    1.0000 </r>
       <r>   -7.5508    1.0000 </r>
       <r>   -6.8756    1.0000 </r>
       <r>   -6.8756    1.0000 </r>
       <r>   -6.8337    1.0000 </r>
       <r>   -6.7357    1.0000 </r>
       <r>   -6.6888    1.0000 </r>
       <r>   -6.6888    1.0000 </r>
       <r>   -6.6149    1.0000 </r>
       <r>   -6.4257    1.0000 </r>
       <r>   -6.4256    1.0000 </r>
       <r>   -5.8507    1.0000 </r>
       <r>   -5.8507    1.0000 </r>
       <r>   -5.8404    1.0000 </r>
       <r>   -5.6963    1.0000 </r>
       <r>   -5.6963    1.0000 </r>
       <r>   -5.5962    1.0000 </r>
       <r>   -5.5961    1.0000 </r>
       <r>   -5.1427    1.0000 </r>
       <r>   -4.9624    1.0000 </r>
       <r>   -4.9623    1.0000 </r>
       <r>   -2.8768    0.0000 </r>
       <r>   -2.8768    0.0000 </r>
       <r>   -1.7137    0.0000 </r>
       <r>   -1.7137    0.0000 </r>
       <r>   -1.5981    0.0000 </r>
       <r>   -1.5116    0.0000 </r>
       <r>   -1.5115    0.0000 </r>
       <r>   -1.5034    0.0000 </r>
       <r>   -0.0230    0.0000 </r>
       <r>    0.1729    0.0000 </r>
       <r>    0.1730    0.0000 </r>
       <r>    0.4641    0.0000 </r>
       <r>    0.5261    0.0000 </r>
       <r>    0.6253    0.0000 </r>
       <r>    0.6253    0.0000 </r>
       <r>    0.8176    0.0000 </r>
       <r>    0.9948    0.0000 </r>
       <r>    1.0886    0.0000 </r>
       <r>    1.0886    0.0000 </r>
       <r>    1.1839    0.0000 </r>
       <r>    1.1840    0.0000 </r>
       <r>    1.2571    0.0000 </r>
       <r>    1.4419    0.0000 </r>
       <r>    1.5514    0.0000 </r>
       <r>    1.5532    0.0000 </r>
       <r>    1.5532    0.0000 </r>
       <r>    1.7546    0.0000 </r>
       <r>    1.8762    0.0000 </r>
       <r>    1.8767    0.0000 </r>
       <r>    1.9216    0.0000 </r>
       <r>    1.9644    0.0000 </r>
       <r>    2.0337    0.0000 </r>
       <r>    2.0342    0.0000 </r>
       <r>    2.0610    0.0000 </r>
       <r>    2.1821    0.0000 </r>
      </set>
      <set comment="kpoint 2">
       <r>  -25.3399    1.0000 </r>
       <r>  -25.1484    1.0000 </r>
       <r>  -24.2631    1.0000 </r>
       <r>  -24.2628    1.0000 </r>
       <r>  -24.0331    1.0000 </r>
       <r>  -22.3657    1.0000 </r>
       <r>  -22.3656    1.0000 </r>
       <r>  -21.9946    1.0000 </r>
       <r>  -21.9945    1.0000 </r>
       <r>  -21.8638    1.0000 </r>
       <r>  -21.7604    1.0000 </r>
       <r>  -21.7603    1.0000 </r>
       <r>  -20.6878    1.0000 </r>
       <r>  -20.6702    1.0000 </r>
       <r>  -20.6701    1.0000 </r>
       <r>  -19.5413    1.0000 </r>
       <r>  -19.5411    1.0000 </r>
       <r>  -19.3678    1.0000 </r>
       <r>  -17.7023    1.0000 </r>
       <r>  -17.7012    1.0000 </r>
       <r>  -16.5588    1.0000 </r>
       <r>  -16.3271    1.0000 </r>
       <r>  -16.3207    1.0000 </r>
       <r>  -16.2689    1.0000 </r>
       <r>  -15.8569    1.0000 </r>
       <r>  -15.8536    1.0000 </r>
       <r>  -14.5927    1.0000 </r>
       <r>  -14.5916    1.0000 </r>
       <r>  -14.2162    1.0000 </r>
       <r>  -14.0264    1.0000 </r>
       <r>  -14.0264    1.0000 </r>
       <r>  -14.0261    1.0000 </r>
       <r>  -13.8453    1.0000 </r>
       <r>  -13.7017    1.0000 </r>
       <r>  -13.7007    1.0000 </r>
       <r>  -12.9830    1.0000 </r>
       <r>  -12.8145    1.0000 </r>
       <r>  -12.6997    1.0000 </r>
       <r>  -12.4039    1.0000 </r>
       <r>  -12.4008    1.0000 </r>
       <r>  -11.8908    1.0000 </r>
       <r>  -11.7760    1.0000 </r>
       <r>  -11.7752    1.0000 </r>
       <r>  -11.2336    1.0000 </r>
       <r>  -11.0803    1.0000 </r>
       <r>  -11.0802    1.0000 </r>
       <r>  -10.9502    1.0000 </r>
       <r>  -10.7266    1.0000 </r>
       <r>  -10.6211    1.0000 </r>
       <r>  -10.5242    1.0000 </r>
       <r>  -10.5234    1.0000 </r>
       <r>  -10.3351    1.0000 </r>
       <r>  -10.3349    1.0000 </r>
       <r>  -10.1039    1.0000 </r>
       <r>  -10.1034    1.0000 </r>
       <r>   -9.7426    1.0000 </r>
       <r>   -9.6249    1.0000 </r>
       <r>   -9.2522    1.0000 </r>
       <r>   -9.2515    1.0000 </r>
       <r>   -9.0342    1.0000 </r>
       <r>   -8.6900    1.0000 </r>
       <r>   -8.6894    1.0000 </r>
       <r>   -8.3180    1.0000 </r>
       <r>   -8.3171    1.0000 </r>
       <r>   -8.2675    1.0000 </r>
       <r>   -8.2268    1.0000 </r>
       <r>   -8.2265    1.0000 </r>
       <r>   -8.2234    1.0000 </r>
       <r>   -8.0305    1.0000 </r>
       <r>   -7.7379    1.0000 </r>
       <r>   -7.7374    1.0000 </r>
       <r>   -7.6940    1.0000 </r>
       <r>   -7.5511    1.0000 </r>
       <r>   -7.5508    1.0000 </r>
       <r>   -6.8756    1.0000 </r>
       <r>   -6.8756    1.0000 </r>
       <r>   -6.8335    1.0000 </r>
       <r>   -6.7354    1.0000 </r>
       <r>   -6.6888    1.0000 </r>
       <r>   -6.6885    1.0000 </r>
       <r>   -6.6149    1.0000 </r>
       <r>   -6.4260    1.0000 </r>
       <r>   -6.4258    1.0000 </r>
       <r>   -5.8509    1.0000 </r>
       <r>   -5.8509    1.0000 </r>
       <r>   -5.8404    1.0000 </r>
       <r>   -5.6962    1.0000 </r>
       <r>   -5.6961    1.0000 </r>
       <r>   -5.5962    1.0000 </r>
       <r>   -5.5961    1.0000 </r>
       <r>   -5.1428    1.0000 </r>
       <r>   -4.9624    1.0000 </r>
       <r>   -4.9622    1.0000 </r>
       <r>   -2.8768    0.0000 </r>
       <r>   -2.8759    0.0000 </r>
       <r>   -1.7298    0.0000 </r>
       <r>   -1.7140    0.0000 </r>
       <r>   -1.5867    0.0000 </r>
       <r>   -1.5133    0.0000 </r>
       <r>   -1.5113    0.0000 </r>
       <r>   -1.4964    0.0000 </r>
       <r>   -0.0225    0.0000 </r>
       <r>    0.1701    0.0000 </r>
       <r>    0.1728    0.0000 </r>
       <r>    0.4646    0.0000 </r>
       <r>    0.5213    0.0000 </r>
       <r>    0.6233    0.0000 </r>
       <r>    0.6303    0.0000 </r>
       <r>    0.8186    0.0000 </r>
       <r>    0.9947    0.0000 </r>
       <r>    1.0885    0.0000 </r>
       <r>    1.0907    0.0000 </r>
       <r>    1.1807    0.0000 </r>
       <r>    1.1837    0.0000 </r>
       <r>    1.2603    0.0000 </r>
       <r>    1.4439    0.0000 </r>
       <r>    1.5256    0.0000 </r>
       <r>    1.5549    0.0000 </r>
       <r>    1.5818    0.0000 </r>
       <r>    1.7548    0.0000 </r>
       <r>    1.8631    0.0000 </r>
       <r>    1.8719    0.0000 </r>
       <r>    1.9312    0.0000 </r>
       <r>    1.9601    0.0000 </r>
       <r>    2.0355    0.0000 </r>
       <r>    2.0397    0.0000 </r>
       <r>    2.0765    0.0000 </r>
       <r>    2.1815    0.0000 </r>
      </set>
      <set comment="kpoint 3">
       <r>  -25.3399    1.0000 </r>
       <r>  -25.1485    1.0000 </r>
       <r>  -24.2631    1.0000 </r>
       <r>  -24.2624    1.0000 </r>
       <r>  -24.0335    1.0000 </r>
       <r>  -22.3656    1.0000 </r>
       <r>  -22.3652    1.0000 </r>
       <r>  -21.9952    1.0000 </r>
       <r>  -21.9950    1.0000 </r>
       <r>  -21.8636    1.0000 </r>
       <r>  -21.7602    1.0000 </r>
       <r>  -21.7600    1.0000 </r>
       <r>  -20.6877    1.0000 </r>
       <r>  -20.6702    1.0000 </r>
       <r>  -20.6702    1.0000 </r>
       <r>  -19.5414    1.0000 </r>
       <r>  -19.5409    1.0000 </r>
       <r>  -19.3686    1.0000 </r>
       <r>  -17.7016    1.0000 </r>
       <r>  -17.6974    1.0000 </r>
       <r>  -16.5710    1.0000 </r>
       <r>  -16.3410    1.0000 </r>
       <r>  -16.3217    1.0000 </r>
       <r>  -16.2568    1.0000 </r>
       <r>  -15.8537    1.0000 </r>
       <r>  -15.8410    1.0000 </r>
       <r>  -14.5969    1.0000 </r>
       <r>  -14.5922    1.0000 </r>
       <r>  -14.2159    1.0000 </r>
       <r>  -14.0265    1.0000 </r>
       <r>  -14.0264    1.0000 </r>
       <r>  -14.0260    1.0000 </r>
       <r>  -13.8436    1.0000 </r>
       <r>  -13.7043    1.0000 </r>
       <r>  -13.7002    1.0000 </r>
       <r>  -12.9868    1.0000 </r>
       <r>  -12.8183    1.0000 </r>
       <r>  -12.6999    1.0000 </r>
       <r>  -12.4041    1.0000 </r>
       <r>  -12.3920    1.0000 </r>
       <r>  -11.8920    1.0000 </r>
       <r>  -11.7752    1.0000 </r>
       <r>  -11.7720    1.0000 </r>
       <r>  -11.2336    1.0000 </r>
       <r>  -11.0806    1.0000 </r>
       <r>  -11.0802    1.0000 </r>
       <r>  -10.9505    1.0000 </r>
       <r>  -10.7279    1.0000 </r>
       <r>  -10.6272    1.0000 </r>
       <r>  -10.5222    1.0000 </r>
       <r>  -10.5194    1.0000 </r>
       <r>  -10.3348    1.0000 </r>
       <r>  -10.3342    1.0000 </r>
       <r>  -10.1054    1.0000 </r>
       <r>  -10.1038    1.0000 </r>
       <r>   -9.7445    1.0000 </r>
       <r>   -9.6255    1.0000 </r>
       <r>   -9.2545    1.0000 </r>
       <r>   -9.2516    1.0000 </r>
       <r>   -9.0308    1.0000 </r>
       <r>   -8.6898    1.0000 </r>
       <r>   -8.6874    1.0000 </r>
       <r>   -8.3202    1.0000 </r>
       <r>   -8.3169    1.0000 </r>
       <r>   -8.2646    1.0000 </r>
       <r>   -8.2271    1.0000 </r>
       <r>   -8.2265    1.0000 </r>
       <r>   -8.2228    1.0000 </r>
       <r>   -8.0310    1.0000 </r>
       <r>   -7.7398    1.0000 </r>
       <r>   -7.7374    1.0000 </r>
       <r>   -7.6938    1.0000 </r>
       <r>   -7.5521    1.0000 </r>
       <r>   -7.5507    1.0000 </r>
       <r>   -6.8756    1.0000 </r>
       <r>   -6.8754    1.0000 </r>
       <r>   -6.8330    1.0000 </r>
       <r>   -6.7346    1.0000 </r>
       <r>   -6.6889    1.0000 </r>
       <r>   -6.6878    1.0000 </r>
       <r>   -6.6149    1.0000 </r>
       <r>   -6.4270    1.0000 </r>
       <r>   -6.4263    1.0000 </r>
       <r>   -5.8514    1.0000 </r>
       <r>   -5.8513    1.0000 </r>
       <r>   -5.8402    1.0000 </r>
       <r>   -5.6960    1.0000 </r>
       <r>   -5.6957    1.0000 </r>
       <r>   -5.5963    1.0000 </r>
       <r>   -5.5959    1.0000 </r>
       <r>   -5.1430    1.0000 </r>
       <r>   -4.9624    1.0000 </r>
       <r>   -4.9620    1.0000 </r>
       <r>   -2.8767    0.0000 </r>
       <r>   -2.8731    0.0000 </r>
       <r>   -1.7653    0.0000 </r>
       <r>   -1.7151    0.0000 </r>
       <r>   -1.5675    0.0000 </r>
       <r>   -1.5150    0.0000 </r>
       <r>   -1.5104    0.0000 </r>
       <r>   -1.4768    0.0000 </r>
       <r>   -0.0212    0.0000 </r>
       <r>    0.1617    0.0000 </r>
       <r>    0.1724    0.0000 </r>
       <r>    0.4658    0.0000 </r>
       <r>    0.5093    0.0000 </r>
       <r>    0.6176    0.0000 </r>
       <r>    0.6430    0.0000 </r>
       <r>    0.8213    0.0000 </r>
       <r>    0.9944    0.0000 </r>
       <r>    1.0878    0.0000 </r>
       <r>    1.0966    0.0000 </r>
       <r>    1.1728    0.0000 </r>
       <r>    1.1834    0.0000 </r>
       <r>    1.2689    0.0000 </r>
       <r>    1.4486    0.0000 </r>
       <r>    1.5037    0.0000 </r>
       <r>    1.5597    0.0000 </r>
       <r>    1.6133    0.0000 </r>
       <r>    1.7552    0.0000 </r>
       <r>    1.8370    0.0000 </r>
       <r>    1.8605    0.0000 </r>
       <r>    1.9364    0.0000 </r>
       <r>    1.9615    0.0000 </r>
       <r>    2.0377    0.0000 </r>
       <r>    2.0532    0.0000 </r>
       <r>    2.1086    0.0000 </r>
       <r>    2.1707    0.0000 </r>
      </set>
      <set comment="kpoint 4">
       <r>  -25.3398    1.0000 </r>
       <r>  -25.1486    1.0000 </r>
       <r>  -24.2631    1.0000 </r>
       <r>  -24.2617    1.0000 </r>
       <r>  -24.0343    1.0000 </r>
       <r>  -22.3654    1.0000 </r>
       <r>  -22.3644    1.0000 </r>
       <r>  -21.9963    1.0000 </r>
       <r>  -21.9958    1.0000 </r>
       <r>  -21.8633    1.0000 </r>
       <r>  -21.7597    1.0000 </r>
       <r>  -21.7595    1.0000 </r>
       <r>  -20.6876    1.0000 </r>
       <r>  -20.6703    1.0000 </r>
       <r>  -20.6703    1.0000 </r>
       <r>  -19.5416    1.0000 </r>
       <r>  -19.5405    1.0000 </r>
       <r>  -19.3697    1.0000 </r>
       <r>  -17.7005    1.0000 </r>
       <r>  -17.6910    1.0000 </r>
       <r>  -16.5908    1.0000 </r>
       <r>  -16.3559    1.0000 </r>
       <r>  -16.3231    1.0000 </r>
       <r>  -16.2448    1.0000 </r>
       <r>  -15.8486    1.0000 </r>
       <r>  -15.8207    1.0000 </r>
       <r>  -14.6038    1.0000 </r>
       <r>  -14.5933    1.0000 </r>
       <r>  -14.2152    1.0000 </r>
       <r>  -14.0266    1.0000 </r>
       <r>  -14.0265    1.0000 </r>
       <r>  -14.0259    1.0000 </r>
       <r>  -13.8409    1.0000 </r>
       <r>  -13.7086    1.0000 </r>
       <r>  -13.6994    1.0000 </r>
       <r>  -12.9933    1.0000 </r>
       <r>  -12.8238    1.0000 </r>
       <r>  -12.7001    1.0000 </r>
       <r>  -12.4044    1.0000 </r>
       <r>  -12.3782    1.0000 </r>
       <r>  -11.8940    1.0000 </r>
       <r>  -11.7740    1.0000 </r>
       <r>  -11.7668    1.0000 </r>
       <r>  -11.2337    1.0000 </r>
       <r>  -11.0811    1.0000 </r>
       <r>  -11.0802    1.0000 </r>
       <r>  -10.9509    1.0000 </r>
       <r>  -10.7301    1.0000 </r>
       <r>  -10.6364    1.0000 </r>
       <r>  -10.5189    1.0000 </r>
       <r>  -10.5137    1.0000 </r>
       <r>  -10.3343    1.0000 </r>
       <r>  -10.3331    1.0000 </r>
       <r>  -10.1080    1.0000 </r>
       <r>  -10.1045    1.0000 </r>
       <r>   -9.7476    1.0000 </r>
       <r>   -9.6264    1.0000 </r>
       <r>   -9.2581    1.0000 </r>
       <r>   -9.2518    1.0000 </r>
       <r>   -9.0254    1.0000 </r>
       <r>   -8.6895    1.0000 </r>
       <r>   -8.6842    1.0000 </r>
       <r>   -8.3234    1.0000 </r>
       <r>   -8.3166    1.0000 </r>
       <r>   -8.2604    1.0000 </r>
       <r>   -8.2275    1.0000 </r>
       <r>   -8.2263    1.0000 </r>
       <r>   -8.2220    1.0000 </r>
       <r>   -8.0317    1.0000 </r>
       <r>   -7.7428    1.0000 </r>
       <r>   -7.7374    1.0000 </r>
       <r>   -7.6936    1.0000 </r>
       <r>   -7.5537    1.0000 </r>
       <r>   -7.5504    1.0000 </r>
       <r>   -6.8755    1.0000 </r>
       <r>   -6.8751    1.0000 </r>
       <r>   -6.8321    1.0000 </r>
       <r>   -6.7333    1.0000 </r>
       <r>   -6.6891    1.0000 </r>
       <r>   -6.6866    1.0000 </r>
       <r>   -6.6149    1.0000 </r>
       <r>   -6.4287    1.0000 </r>
       <r>   -6.4271    1.0000 </r>
       <r>   -5.8522    1.0000 </r>
       <r>   -5.8521    1.0000 </r>
       <r>   -5.8399    1.0000 </r>
       <r>   -5.6955    1.0000 </r>
       <r>   -5.6950    1.0000 </r>
       <r>   -5.5966    1.0000 </r>
       <r>   -5.5955    1.0000 </r>
       <r>   -5.1434    1.0000 </r>
       <r>   -4.9624    1.0000 </r>
       <r>   -4.9616    1.0000 </r>
       <r>   -2.8765    0.0000 </r>
       <r>   -2.8686    0.0000 </r>
       <r>   -1.8077    0.0000 </r>
       <r>   -1.7168    0.0000 </r>
       <r>   -1.5541    0.0000 </r>
       <r>   -1.5161    0.0000 </r>
       <r>   -1.5090    0.0000 </r>
       <r>   -1.4441    0.0000 </r>
       <r>   -0.0190    0.0000 </r>
       <r>    0.1480    0.0000 </r>
       <r>    0.1717    0.0000 </r>
       <r>    0.4667    0.0000 </r>
       <r>    0.4946    0.0000 </r>
       <r>    0.6089    0.0000 </r>
       <r>    0.6596    0.0000 </r>
       <r>    0.8255    0.0000 </r>
       <r>    0.9943    0.0000 </r>
       <r>    1.0850    0.0000 </r>
       <r>    1.1048    0.0000 </r>
       <r>    1.1640    0.0000 </r>
       <r>    1.1837    0.0000 </r>
       <r>    1.2812    0.0000 </r>
       <r>    1.4491    0.0000 </r>
       <r>    1.4929    0.0000 </r>
       <r>    1.5673    0.0000 </r>
       <r>    1.6460    0.0000 </r>
       <r>    1.7550    0.0000 </r>
       <r>    1.8079    0.0000 </r>
       <r>    1.8462    0.0000 </r>
       <r>    1.9241    0.0000 </r>
       <r>    1.9790    0.0000 </r>
       <r>    2.0415    0.0000 </r>
       <r>    2.0711    0.0000 </r>
       <r>    2.1232    0.0000 </r>
       <r>    2.1508    0.0000 </r>
      </set>
      <set comment="kpoint 5">
       <r>  -25.3397    1.0000 </r>
       <r>  -25.1488    1.0000 </r>
       <r>  -24.2630    1.0000 </r>
       <r>  -24.2607    1.0000 </r>
       <r>  -24.0353    1.0000 </r>
       <r>  -22.3652    1.0000 </r>
       <r>  -22.3634    1.0000 </r>
       <r>  -21.9978    1.0000 </r>
       <r>  -21.9968    1.0000 </r>
       <r>  -21.8630    1.0000 </r>
       <r>  -21.7591    1.0000 </r>
       <r>  -21.7589    1.0000 </r>
       <r>  -20.6875    1.0000 </r>
       <r>  -20.6705    1.0000 </r>
       <r>  -20.6703    1.0000 </r>
       <r>  -19.5419    1.0000 </r>
       <r>  -19.5399    1.0000 </r>
       <r>  -19.3713    1.0000 </r>
       <r>  -17.6991    1.0000 </r>
       <r>  -17.6822    1.0000 </r>
       <r>  -16.6172    1.0000 </r>
       <r>  -16.3700    1.0000 </r>
       <r>  -16.3249    1.0000 </r>
       <r>  -16.2344    1.0000 </r>
       <r>  -15.8418    1.0000 </r>
       <r>  -15.7936    1.0000 </r>
       <r>  -14.6135    1.0000 </r>
       <r>  -14.5948    1.0000 </r>
       <r>  -14.2143    1.0000 </r>
       <r>  -14.0268    1.0000 </r>
       <r>  -14.0265    1.0000 </r>
       <r>  -14.0258    1.0000 </r>
       <r>  -13.8372    1.0000 </r>
       <r>  -13.7144    1.0000 </r>
       <r>  -13.6982    1.0000 </r>
       <r>  -13.0028    1.0000 </r>
       <r>  -12.8299    1.0000 </r>
       <r>  -12.7003    1.0000 </r>
       <r>  -12.4049    1.0000 </r>
       <r>  -12.3605    1.0000 </r>
       <r>  -11.8966    1.0000 </r>
       <r>  -11.7722    1.0000 </r>
       <r>  -11.7596    1.0000 </r>
       <r>  -11.2338    1.0000 </r>
       <r>  -11.0818    1.0000 </r>
       <r>  -11.0802    1.0000 </r>
       <r>  -10.9514    1.0000 </r>
       <r>  -10.7332    1.0000 </r>
       <r>  -10.6478    1.0000 </r>
       <r>  -10.5145    1.0000 </r>
       <r>  -10.5071    1.0000 </r>
       <r>  -10.3337    1.0000 </r>
       <r>  -10.3315    1.0000 </r>
       <r>  -10.1114    1.0000 </r>
       <r>  -10.1053    1.0000 </r>
       <r>   -9.7520    1.0000 </r>
       <r>   -9.6274    1.0000 </r>
       <r>   -9.2627    1.0000 </r>
       <r>   -9.2520    1.0000 </r>
       <r>   -9.0184    1.0000 </r>
       <r>   -8.6891    1.0000 </r>
       <r>   -8.6798    1.0000 </r>
       <r>   -8.3269    1.0000 </r>
       <r>   -8.3161    1.0000 </r>
       <r>   -8.2555    1.0000 </r>
       <r>   -8.2277    1.0000 </r>
       <r>   -8.2261    1.0000 </r>
       <r>   -8.2209    1.0000 </r>
       <r>   -8.0327    1.0000 </r>
       <r>   -7.7470    1.0000 </r>
       <r>   -7.7374    1.0000 </r>
       <r>   -7.6933    1.0000 </r>
       <r>   -7.5557    1.0000 </r>
       <r>   -7.5501    1.0000 </r>
       <r>   -6.8754    1.0000 </r>
       <r>   -6.8748    1.0000 </r>
       <r>   -6.8310    1.0000 </r>
       <r>   -6.7315    1.0000 </r>
       <r>   -6.6893    1.0000 </r>
       <r>   -6.6849    1.0000 </r>
       <r>   -6.6149    1.0000 </r>
       <r>   -6.4310    1.0000 </r>
       <r>   -6.4282    1.0000 </r>
       <r>   -5.8533    1.0000 </r>
       <r>   -5.8530    1.0000 </r>
       <r>   -5.8396    1.0000 </r>
       <r>   -5.6950    1.0000 </r>
       <r>   -5.6940    1.0000 </r>
       <r>   -5.5969    1.0000 </r>
       <r>   -5.5951    1.0000 </r>
       <r>   -5.1439    1.0000 </r>
       <r>   -4.9623    1.0000 </r>
       <r>   -4.9610    1.0000 </r>
       <r>   -2.8762    0.0000 </r>
       <r>   -2.8622    0.0000 </r>
       <r>   -1.8523    0.0000 </r>
       <r>   -1.7190    0.0000 </r>
       <r>   -1.5468    0.0000 </r>
       <r>   -1.5167    0.0000 </r>
       <r>   -1.5071    0.0000 </r>
       <r>   -1.4024    0.0000 </r>
       <r>   -0.0158    0.0000 </r>
       <r>    0.1294    0.0000 </r>
       <r>    0.1708    0.0000 </r>
       <r>    0.4619    0.0000 </r>
       <r>    0.4848    0.0000 </r>
       <r>    0.5979    0.0000 </r>
       <r>    0.6776    0.0000 </r>
       <r>    0.8311    0.0000 </r>
       <r>    0.9948    0.0000 </r>
       <r>    1.0782    0.0000 </r>
       <r>    1.1131    0.0000 </r>
       <r>    1.1585    0.0000 </r>
       <r>    1.1863    0.0000 </r>
       <r>    1.2957    0.0000 </r>
       <r>    1.4389    0.0000 </r>
       <r>    1.4993    0.0000 </r>
       <r>    1.5773    0.0000 </r>
       <r>    1.6790    0.0000 </r>
       <r>    1.7506    0.0000 </r>
       <r>    1.7827    0.0000 </r>
       <r>    1.8320    0.0000 </r>
       <r>    1.9090    0.0000 </r>
       <r>    1.9975    0.0000 </r>
       <r>    2.0455    0.0000 </r>
       <r>    2.0850    0.0000 </r>
       <r>    2.1044    0.0000 </r>
       <r>    2.1367    0.0000 </r>
      </set>
      <set comment="kpoint 6">
       <r>  -25.3396    1.0000 </r>
       <r>  -25.1491    1.0000 </r>
       <r>  -24.2630    1.0000 </r>
       <r>  -24.2595    1.0000 </r>
       <r>  -24.0366    1.0000 </r>
       <r>  -22.3649    1.0000 </r>
       <r>  -22.3622    1.0000 </r>
       <r>  -21.9996    1.0000 </r>
       <r>  -21.9981    1.0000 </r>
       <r>  -21.8626    1.0000 </r>
       <r>  -21.7584    1.0000 </r>
       <r>  -21.7580    1.0000 </r>
       <r>  -20.6873    1.0000 </r>
       <r>  -20.6707    1.0000 </r>
       <r>  -20.6704    1.0000 </r>
       <r>  -19.5422    1.0000 </r>
       <r>  -19.5392    1.0000 </r>
       <r>  -19.3733    1.0000 </r>
       <r>  -17.6972    1.0000 </r>
       <r>  -17.6710    1.0000 </r>
       <r>  -16.6490    1.0000 </r>
       <r>  -16.3830    1.0000 </r>
       <r>  -16.3270    1.0000 </r>
       <r>  -16.2261    1.0000 </r>
       <r>  -15.8336    1.0000 </r>
       <r>  -15.7610    1.0000 </r>
       <r>  -14.6258    1.0000 </r>
       <r>  -14.5967    1.0000 </r>
       <r>  -14.2132    1.0000 </r>
       <r>  -14.0269    1.0000 </r>
       <r>  -14.0266    1.0000 </r>
       <r>  -14.0257    1.0000 </r>
       <r>  -13.8327    1.0000 </r>
       <r>  -13.7214    1.0000 </r>
       <r>  -13.6966    1.0000 </r>
       <r>  -13.0153    1.0000 </r>
       <r>  -12.8357    1.0000 </r>
       <r>  -12.7004    1.0000 </r>
       <r>  -12.4054    1.0000 </r>
       <r>  -12.3399    1.0000 </r>
       <r>  -11.8997    1.0000 </r>
       <r>  -11.7701    1.0000 </r>
       <r>  -11.7506    1.0000 </r>
       <r>  -11.2339    1.0000 </r>
       <r>  -11.0828    1.0000 </r>
       <r>  -11.0802    1.0000 </r>
       <r>  -10.9521    1.0000 </r>
       <r>  -10.7374    1.0000 </r>
       <r>  -10.6605    1.0000 </r>
       <r>  -10.5092    1.0000 </r>
       <r>  -10.5001    1.0000 </r>
       <r>  -10.3329    1.0000 </r>
       <r>  -10.3294    1.0000 </r>
       <r>  -10.1157    1.0000 </r>
       <r>  -10.1064    1.0000 </r>
       <r>   -9.7577    1.0000 </r>
       <r>   -9.6285    1.0000 </r>
       <r>   -9.2681    1.0000 </r>
       <r>   -9.2523    1.0000 </r>
       <r>   -9.0100    1.0000 </r>
       <r>   -8.6885    1.0000 </r>
       <r>   -8.6746    1.0000 </r>
       <r>   -8.3305    1.0000 </r>
       <r>   -8.3155    1.0000 </r>
       <r>   -8.2504    1.0000 </r>
       <r>   -8.2278    1.0000 </r>
       <r>   -8.2257    1.0000 </r>
       <r>   -8.2197    1.0000 </r>
       <r>   -8.0340    1.0000 </r>
       <r>   -7.7523    1.0000 </r>
       <r>   -7.7375    1.0000 </r>
       <r>   -7.6930    1.0000 </r>
       <r>   -7.5582    1.0000 </r>
       <r>   -7.5497    1.0000 </r>
       <r>   -6.8753    1.0000 </r>
       <r>   -6.8744    1.0000 </r>
       <r>   -6.8295    1.0000 </r>
       <r>   -6.7292    1.0000 </r>
       <r>   -6.6896    1.0000 </r>
       <r>   -6.6827    1.0000 </r>
       <r>   -6.6149    1.0000 </r>
       <r>   -6.4339    1.0000 </r>
       <r>   -6.4295    1.0000 </r>
       <r>   -5.8546    1.0000 </r>
       <r>   -5.8542    1.0000 </r>
       <r>   -5.8393    1.0000 </r>
       <r>   -5.6943    1.0000 </r>
       <r>   -5.6927    1.0000 </r>
       <r>   -5.5973    1.0000 </r>
       <r>   -5.5945    1.0000 </r>
       <r>   -5.1446    1.0000 </r>
       <r>   -4.9623    1.0000 </r>
       <r>   -4.9603    1.0000 </r>
       <r>   -2.8758    0.0000 </r>
       <r>   -2.8541    0.0000 </r>
       <r>   -1.8976    0.0000 </r>
       <r>   -1.7218    0.0000 </r>
       <r>   -1.5426    0.0000 </r>
       <r>   -1.5172    0.0000 </r>
       <r>   -1.5047    0.0000 </r>
       <r>   -1.3561    0.0000 </r>
       <r>   -0.0119    0.0000 </r>
       <r>    0.1064    0.0000 </r>
       <r>    0.1696    0.0000 </r>
       <r>    0.4467    0.0000 </r>
       <r>    0.4856    0.0000 </r>
       <r>    0.5854    0.0000 </r>
       <r>    0.6953    0.0000 </r>
       <r>    0.8382    0.0000 </r>
       <r>    0.9958    0.0000 </r>
       <r>    1.0664    0.0000 </r>
       <r>    1.1188    0.0000 </r>
       <r>    1.1582    0.0000 </r>
       <r>    1.1935    0.0000 </r>
       <r>    1.3112    0.0000 </r>
       <r>    1.4254    0.0000 </r>
       <r>    1.5151    0.0000 </r>
       <r>    1.5887    0.0000 </r>
       <r>    1.7103    0.0000 </r>
       <r>    1.7326    0.0000 </r>
       <r>    1.7728    0.0000 </r>
       <r>    1.8202    0.0000 </r>
       <r>    1.8942    0.0000 </r>
       <r>    2.0091    0.0000 </r>
       <r>    2.0427    0.0000 </r>
       <r>    2.0679    0.0000 </r>
       <r>    2.1103    0.0000 </r>
       <r>    2.1337    0.0000 </r>
      </set>
      <set comment="kpoint 7">
       <r>  -25.3394    1.0000 </r>
       <r>  -25.1494    1.0000 </r>
       <r>  -24.2631    1.0000 </r>
       <r>  -24.2581    1.0000 </r>
       <r>  -24.0381    1.0000 </r>
       <r>  -22.3646    1.0000 </r>
       <r>  -22.3607    1.0000 </r>
       <r>  -22.0016    1.0000 </r>
       <r>  -21.9996    1.0000 </r>
       <r>  -21.8621    1.0000 </r>
       <r>  -21.7576    1.0000 </r>
       <r>  -21.7571    1.0000 </r>
       <r>  -20.6871    1.0000 </r>
       <r>  -20.6710    1.0000 </r>
       <r>  -20.6705    1.0000 </r>
       <r>  -19.5426    1.0000 </r>
       <r>  -19.5383    1.0000 </r>
       <r>  -19.3756    1.0000 </r>
       <r>  -17.6951    1.0000 </r>
       <r>  -17.6574    1.0000 </r>
       <r>  -16.6848    1.0000 </r>
       <r>  -16.3951    1.0000 </r>
       <r>  -16.3290    1.0000 </r>
       <r>  -16.2196    1.0000 </r>
       <r>  -15.8243    1.0000 </r>
       <r>  -15.7239    1.0000 </r>
       <r>  -14.6408    1.0000 </r>
       <r>  -14.5989    1.0000 </r>
       <r>  -14.2120    1.0000 </r>
       <r>  -14.0270    1.0000 </r>
       <r>  -14.0266    1.0000 </r>
       <r>  -14.0256    1.0000 </r>
       <r>  -13.8276    1.0000 </r>
       <r>  -13.7295    1.0000 </r>
       <r>  -13.6946    1.0000 </r>
       <r>  -13.0306    1.0000 </r>
       <r>  -12.8406    1.0000 </r>
       <r>  -12.7004    1.0000 </r>
       <r>  -12.4060    1.0000 </r>
       <r>  -12.3173    1.0000 </r>
       <r>  -11.9034    1.0000 </r>
       <r>  -11.7677    1.0000 </r>
       <r>  -11.7400    1.0000 </r>
       <r>  -11.2341    1.0000 </r>
       <r>  -11.0839    1.0000 </r>
       <r>  -11.0801    1.0000 </r>
       <r>  -10.9527    1.0000 </r>
       <r>  -10.7427    1.0000 </r>
       <r>  -10.6737    1.0000 </r>
       <r>  -10.5032    1.0000 </r>
       <r>  -10.4930    1.0000 </r>
       <r>  -10.3318    1.0000 </r>
       <r>  -10.3268    1.0000 </r>
       <r>  -10.1208    1.0000 </r>
       <r>  -10.1077    1.0000 </r>
       <r>   -9.7646    1.0000 </r>
       <r>   -9.6295    1.0000 </r>
       <r>   -9.2739    1.0000 </r>
       <r>   -9.2526    1.0000 </r>
       <r>   -9.0006    1.0000 </r>
       <r>   -8.6878    1.0000 </r>
       <r>   -8.6687    1.0000 </r>
       <r>   -8.3339    1.0000 </r>
       <r>   -8.3148    1.0000 </r>
       <r>   -8.2458    1.0000 </r>
       <r>   -8.2275    1.0000 </r>
       <r>   -8.2249    1.0000 </r>
       <r>   -8.2182    1.0000 </r>
       <r>   -8.0354    1.0000 </r>
       <r>   -7.7587    1.0000 </r>
       <r>   -7.7375    1.0000 </r>
       <r>   -7.6927    1.0000 </r>
       <r>   -7.5610    1.0000 </r>
       <r>   -7.5492    1.0000 </r>
       <r>   -6.8752    1.0000 </r>
       <r>   -6.8740    1.0000 </r>
       <r>   -6.8279    1.0000 </r>
       <r>   -6.7267    1.0000 </r>
       <r>   -6.6898    1.0000 </r>
       <r>   -6.6799    1.0000 </r>
       <r>   -6.6149    1.0000 </r>
       <r>   -6.4374    1.0000 </r>
       <r>   -6.4311    1.0000 </r>
       <r>   -5.8560    1.0000 </r>
       <r>   -5.8556    1.0000 </r>
       <r>   -5.8389    1.0000 </r>
       <r>   -5.6935    1.0000 </r>
       <r>   -5.6913    1.0000 </r>
       <r>   -5.5977    1.0000 </r>
       <r>   -5.5938    1.0000 </r>
       <r>   -5.1453    1.0000 </r>
       <r>   -4.9622    1.0000 </r>
       <r>   -4.9595    1.0000 </r>
       <r>   -2.8754    0.0000 </r>
       <r>   -2.8442    0.0000 </r>
       <r>   -1.9428    0.0000 </r>
       <r>   -1.7248    0.0000 </r>
       <r>   -1.5400    0.0000 </r>
       <r>   -1.5176    0.0000 </r>
       <r>   -1.5019    0.0000 </r>
       <r>   -1.3075    0.0000 </r>
       <r>   -0.0071    0.0000 </r>
       <r>    0.0796    0.0000 </r>
       <r>    0.1683    0.0000 </r>
       <r>    0.4278    0.0000 </r>
       <r>    0.4907    0.0000 </r>
       <r>    0.5722    0.0000 </r>
       <r>    0.7114    0.0000 </r>
       <r>    0.8470    0.0000 </r>
       <r>    0.9965    0.0000 </r>
       <r>    1.0515    0.0000 </r>
       <r>    1.1211    0.0000 </r>
       <r>    1.1618    0.0000 </r>
       <r>    1.2071    0.0000 </r>
       <r>    1.3252    0.0000 </r>
       <r>    1.4156    0.0000 </r>
       <r>    1.5347    0.0000 </r>
       <r>    1.5997    0.0000 </r>
       <r>    1.7064    0.0000 </r>
       <r>    1.7378    0.0000 </r>
       <r>    1.7726    0.0000 </r>
       <r>    1.8144    0.0000 </r>
       <r>    1.8810    0.0000 </r>
       <r>    1.9897    0.0000 </r>
       <r>    2.0396    0.0000 </r>
       <r>    2.0646    0.0000 </r>
       <r>    2.1056    0.0000 </r>
       <r>    2.1516    0.0000 </r>
      </set>
      <set comment="kpoint 8">
       <r>  -25.3392    1.0000 </r>
       <r>  -25.1497    1.0000 </r>
       <r>  -24.2631    1.0000 </r>
       <r>  -24.2565    1.0000 </r>
       <r>  -24.0399    1.0000 </r>
       <r>  -22.3642    1.0000 </r>
       <r>  -22.3590    1.0000 </r>
       <r>  -22.0040    1.0000 </r>
       <r>  -22.0013    1.0000 </r>
       <r>  -21.8616    1.0000 </r>
       <r>  -21.7566    1.0000 </r>
       <r>  -21.7560    1.0000 </r>
       <r>  -20.6869    1.0000 </r>
       <r>  -20.6713    1.0000 </r>
       <r>  -20.6706    1.0000 </r>
       <r>  -19.5431    1.0000 </r>
       <r>  -19.5374    1.0000 </r>
       <r>  -19.3782    1.0000 </r>
       <r>  -17.6927    1.0000 </r>
       <r>  -17.6415    1.0000 </r>
       <r>  -16.7235    1.0000 </r>
       <r>  -16.4066    1.0000 </r>
       <r>  -16.3310    1.0000 </r>
       <r>  -16.2147    1.0000 </r>
       <r>  -15.8143    1.0000 </r>
       <r>  -15.6833    1.0000 </r>
       <r>  -14.6583    1.0000 </r>
       <r>  -14.6013    1.0000 </r>
       <r>  -14.2106    1.0000 </r>
       <r>  -14.0271    1.0000 </r>
       <r>  -14.0267    1.0000 </r>
       <r>  -14.0255    1.0000 </r>
       <r>  -13.8222    1.0000 </r>
       <r>  -13.7381    1.0000 </r>
       <r>  -13.6920    1.0000 </r>
       <r>  -13.0482    1.0000 </r>
       <r>  -12.8441    1.0000 </r>
       <r>  -12.7004    1.0000 </r>
       <r>  -12.4067    1.0000 </r>
       <r>  -12.2937    1.0000 </r>
       <r>  -11.9074    1.0000 </r>
       <r>  -11.7650    1.0000 </r>
       <r>  -11.7278    1.0000 </r>
       <r>  -11.2343    1.0000 </r>
       <r>  -11.0853    1.0000 </r>
       <r>  -11.0800    1.0000 </r>
       <r>  -10.9534    1.0000 </r>
       <r>  -10.7495    1.0000 </r>
       <r>  -10.6869    1.0000 </r>
       <r>  -10.4968    1.0000 </r>
       <r>  -10.4861    1.0000 </r>
       <r>  -10.3305    1.0000 </r>
       <r>  -10.3237    1.0000 </r>
       <r>  -10.1264    1.0000 </r>
       <r>  -10.1092    1.0000 </r>
       <r>   -9.7727    1.0000 </r>
       <r>   -9.6304    1.0000 </r>
       <r>   -9.2800    1.0000 </r>
       <r>   -9.2530    1.0000 </r>
       <r>   -8.9905    1.0000 </r>
       <r>   -8.6871    1.0000 </r>
       <r>   -8.6624    1.0000 </r>
       <r>   -8.3369    1.0000 </r>
       <r>   -8.3140    1.0000 </r>
       <r>   -8.2423    1.0000 </r>
       <r>   -8.2271    1.0000 </r>
       <r>   -8.2232    1.0000 </r>
[...]
       <r>    1.5514    0.0000 </r>
       <r>    1.5532    0.0000 </r>
       <r>    1.5532    0.0000 </r>
       <r>    1.7546    0.0000 </r>
       <r>    1.8762    0.0000 </r>
       <r>    1.8768    0.0000 </r>
       <r>    1.9217    0.0000 </r>
       <r>    1.9646    0.0000 </r>
       <r>    2.0340    0.0000 </r>
       <r>    2.0353    0.0000 </r>
       <r>    2.0627    0.0000 </r>
       <r>    2.1837    0.0000 </r>
      </set>
     </set>
    </set>
   </array>
  </eigenvalues>
  <separator name="orbital magnetization" >
   <v name="MAGDIPOLOUT">      0.00000000      0.00000000      0.00000000</v>
  </separator>
  <dos>
   <i name="efermi">     -4.89218659 </i>
   <total>
    <array>
     <dimension dim="1">gridpoints</dimension>
     <dimension dim="2">spin</dimension>
     <field>energy</field>
     <field>total</field>
     <field>integrated</field>
     <set>
      <set comment="spin 1">
       <r>   -26.7161     0.0000     0.0000 </r>
       <r>   -26.6152     0.0000     0.0000 </r>
       <r>   -26.5143     0.0000     0.0000 </r>
       <r>   -26.4134     0.0000     0.0000 </r>
       <r>   -26.3124     0.0000     0.0000 </r>
       <r>   -26.2115     0.0000     0.0000 </r>
       <r>   -26.1106     0.0000     0.0000 </r>
       <r>   -26.0097     0.0000     0.0000 </r>
       <r>   -25.9088     0.0000     0.0000 </r>
       <r>   -25.8078     0.0000     0.0000 </r>
       <r>   -25.7069     0.0000     0.0000 </r>
       <r>   -25.6060     0.0000     0.0000 </r>
       <r>   -25.5051     0.0000     0.0000 </r>
       <r>   -25.4042     0.0000     0.0000 </r>
       <r>   -25.3032    19.8177     2.0000 </r>
       <r>   -25.2023     0.0000     2.0000 </r>
       <r>   -25.1014    19.8177     4.0000 </r>
       <r>   -25.0005     0.0000     4.0000 </r>
       <r>   -24.8996     0.0000     4.0000 </r>
       <r>   -24.7986     0.0000     4.0000 </r>
       <r>   -24.6977     0.0000     4.0000 </r>
       <r>   -24.5968     0.0000     4.0000 </r>
       <r>   -24.4959     0.0000     4.0000 </r>
       <r>   -24.3950     0.0000     4.0000 </r>
       <r>   -24.2940     0.0001     4.0000 </r>
       <r>   -24.1931    39.6353     8.0000 </r>
       <r>   -24.0922     0.0000     8.0000 </r>
       <r>   -23.9913    19.8177    10.0000 </r>
       <r>   -23.8904     0.0000    10.0000 </r>
       <r>   -23.7894     0.0000    10.0000 </r>
       <r>   -23.6885     0.0000    10.0000 </r>
       <r>   -23.5876     0.0000    10.0000 </r>
       <r>   -23.4867     0.0000    10.0000 </r>
       <r>   -23.3858     0.0000    10.0000 </r>
       <r>   -23.2848     0.0000    10.0000 </r>
       <r>   -23.1839     0.0000    10.0000 </r>
       <r>   -23.0830     0.0000    10.0000 </r>
       <r>   -22.9821     0.0000    10.0000 </r>
       <r>   -22.8812     0.0000    10.0000 </r>
       <r>   -22.7802     0.0000    10.0000 </r>
       <r>   -22.6793     0.0000    10.0000 </r>
       <r>   -22.5784     0.0000    10.0000 </r>
       <r>   -22.4775     0.0000    10.0000 </r>
       <r>   -22.3766     0.6309    10.0637 </r>
       <r>   -22.2756    14.2014    14.0000 </r>
       <r>   -22.1747     0.0000    14.0000 </r>
       <r>   -22.0738     0.0000    14.0000 </r>
       <r>   -21.9729    39.6302    17.9995 </r>
       <r>   -21.8720     0.8941    18.0902 </r>
       <r>   -21.7710     0.6339    20.0640 </r>
       <r>   -21.6701    16.1793    24.0000 </r>
       <r>   -21.5692     0.0000    24.0000 </r>
       <r>   -21.4683     0.0000    24.0000 </r>
       <r>   -21.3674     0.0000    24.0000 </r>
       <r>   -21.2664     0.0000    24.0000 </r>
       <r>   -21.1655     0.0000    24.0000 </r>
       <r>   -21.0646     0.0000    24.0000 </r>
       <r>   -20.9637     0.0000    24.0000 </r>
       <r>   -20.8628     0.0000    24.0000 </r>
       <r>   -20.7618     0.0000    24.0000 </r>
       <r>   -20.6609    57.1693    29.7695 </r>
       <r>   -20.5600     0.0000    30.0000 </r>
       <r>   -20.4591     0.0000    30.0000 </r>
       <r>   -20.3582     0.0000    30.0000 </r>
       <r>   -20.2572     0.0000    30.0000 </r>
       <r>   -20.1563     0.0000    30.0000 </r>
       <r>   -20.0554     0.0000    30.0000 </r>
       <r>   -19.9545     0.0000    30.0000 </r>
       <r>   -19.8536     0.0000    30.0000 </r>
       <r>   -19.7526     0.0000    30.0000 </r>
       <r>   -19.6517     0.0000    30.0000 </r>
       <r>   -19.5508     5.9129    30.5967 </r>
       <r>   -19.4499    11.5579    34.0000 </r>
       <r>   -19.3490    19.8092    35.9991 </r>
       <r>   -19.2480     0.0000    36.0000 </r>
       <r>   -19.1471     0.0000    36.0000 </r>
       <r>   -19.0462     0.0000    36.0000 </r>
       <r>   -18.9453     0.0000    36.0000 </r>
       <r>   -18.8444     0.0000    36.0000 </r>
       <r>   -18.7434     0.0000    36.0000 </r>
       <r>   -18.6425     0.0000    36.0000 </r>
       <r>   -18.5416     0.0000    36.0000 </r>
       <r>   -18.4407     0.0000    36.0000 </r>
       <r>   -18.3398     0.0000    36.0000 </r>
       <r>   -18.2388     0.0000    36.0000 </r>
       <r>   -18.1379     0.0000    36.0000 </r>
       <r>   -18.0370     0.0000    36.0000 </r>
       <r>   -17.9361     0.0000    36.0000 </r>
       <r>   -17.8352     0.0000    36.0000 </r>
       <r>   -17.7342     0.0000    36.0000 </r>
       <r>   -17.6333    24.7364    38.4964 </r>
       <r>   -17.5324     2.1730    38.7860 </r>
       <r>   -17.4315     1.8770    39.0228 </r>
       <r>   -17.3306     6.6015    39.7329 </r>
       <r>   -17.2296     3.5665    40.1933 </r>
       <r>   -17.1287     5.3688    40.8418 </r>
       <r>   -17.0278     1.3260    41.0672 </r>
       <r>   -16.9269     0.9271    41.2269 </r>
       <r>   -16.8260     1.0133    41.3689 </r>
       <r>   -16.7250     0.8833    41.5225 </r>
       <r>   -16.6241     1.3620    41.7041 </r>
       <r>   -16.5232     2.9661    42.0327 </r>
       <r>   -16.4223     9.3391    43.4425 </r>
       <r>   -16.3214    21.8039    45.7671 </r>
       <r>   -16.2204     7.8337    46.7906 </r>
       <r>   -16.1195     0.0000    48.0000 </r>
       <r>   -16.0186     0.0000    48.0000 </r>
       <r>   -15.9177     0.0000    48.0000 </r>
       <r>   -15.8168     6.6700    48.6731 </r>
       <r>   -15.7158     8.3983    49.6809 </r>
       <r>   -15.6149     6.9371    50.5668 </r>
       <r>   -15.5140     1.0130    50.7022 </r>
       <r>   -15.4131     1.1323    50.8476 </r>
       <r>   -15.3122     1.3145    50.9993 </r>
       <r>   -15.2112     4.4708    51.4845 </r>
       <r>   -15.1103     3.6316    51.9998 </r>
       <r>   -15.0094     2.9748    52.3002 </r>
       <r>   -14.9085     5.4515    52.9502 </r>
       <r>   -14.8076     1.5476    53.1562 </r>
       <r>   -14.7066     1.8560    53.3873 </r>
       <r>   -14.6057    17.7055    55.2202 </r>
       <r>   -14.5048     0.0000    56.0000 </r>
       <r>   -14.4039     0.0000    56.0000 </r>
       <r>   -14.3030     0.0000    56.0000 </r>
       <r>   -14.2020     9.6433    56.9732 </r>
       <r>   -14.1011     0.0000    58.0000 </r>
       <r>   -14.0002    59.4459    63.9993 </r>
       <r>   -13.8993     0.0000    64.0000 </r>
       <r>   -13.7984    19.6857    65.9867 </r>
       <r>   -13.6974    22.0188    68.2221 </r>
       <r>   -13.5965    12.8809    70.0000 </r>
       <r>   -13.4956     0.0000    70.0000 </r>
       <r>   -13.3947     0.0000    70.0000 </r>
       <r>   -13.2938     0.0207    70.0021 </r>
       <r>   -13.1928     8.7681    71.0850 </r>
       <r>   -13.0919     2.6142    71.3972 </r>
       <r>   -12.9910     3.7936    71.8162 </r>
       <r>   -12.8901     0.0000    72.0000 </r>
       <r>   -12.7892    19.8173    74.0000 </r>
       <r>   -12.6882    18.5583    75.8729 </r>
       <r>   -12.5873     0.0000    76.0000 </r>
       <r>   -12.4864     0.0000    76.0000 </r>
       <r>   -12.3855    21.6475    78.1847 </r>
       <r>   -12.2846     2.2637    78.4951 </r>
       <r>   -12.1836     1.9456    78.7630 </r>
       <r>   -12.0827     6.3151    79.4374 </r>
       <r>   -11.9818     7.3593    80.3427 </r>
       <r>   -11.8809    12.7063    81.9824 </r>
       <r>   -11.7800     1.2630    82.1275 </r>
       <r>   -11.6791    17.6145    84.6777 </r>
       <r>   -11.5781     6.4231    85.4149 </r>
       <r>   -11.4772     0.0000    86.0000 </r>
       <r>   -11.3763     0.0000    86.0000 </r>
       <r>   -11.2754     0.0002    86.0000 </r>
       <r>   -11.1745    19.8175    88.0000 </r>
       <r>   -11.0735    34.4708    91.4788 </r>
       <r>   -10.9726     0.1097    92.0111 </r>
       <r>   -10.8717    12.0731    94.9187 </r>
       <r>   -10.7708     3.3600    95.4058 </r>
       <r>   -10.6699    20.9112    97.6106 </r>
       <r>   -10.5689     2.9723    98.0000 </r>
       <r>   -10.4680    21.2894   100.1485 </r>
       <r>   -10.3671    11.5602   102.0000 </r>
       <r>   -10.2662    38.9281   105.9286 </r>
       <r>   -10.1653    11.5872   107.1694 </r>
       <r>   -10.0643    26.0929   110.0000 </r>
       <r>    -9.9634     0.0000   110.0000 </r>
       <r>    -9.8625     9.0584   110.9142 </r>
       <r>    -9.7616     4.8824   111.6261 </r>
       <r>    -9.6607     0.0001   112.0000 </r>
       <r>    -9.5597    19.8175   114.0000 </r>
       <r>    -9.4588     0.0000   114.0000 </r>
       <r>    -9.3579     0.0000   114.0000 </r>
       <r>    -9.2570    28.0041   116.8262 </r>
       <r>    -9.1561     0.0000   118.0000 </r>
       <r>    -9.0551     0.0027   118.0003 </r>
       <r>    -8.9542     6.0912   118.6815 </r>
       <r>    -8.8533    11.8902   120.0000 </r>
       <r>    -8.7524     0.0000   120.0000 </r>
       <r>    -8.6515    25.6070   122.5843 </r>
       <r>    -8.5505     5.9442   124.0000 </r>
       <r>    -8.4496     0.0000   124.0000 </r>
       <r>    -8.3487     1.4045   124.1417 </r>
       <r>    -8.2478    30.7328   128.8016 </r>
       <r>    -8.1469    55.4446   135.9971 </r>
       <r>    -8.0459     6.1089   136.6165 </r>
       <r>    -7.9450     0.0000   138.0000 </r>
       <r>    -7.8441    10.0933   139.0186 </r>
       <r>    -7.7432    11.6144   140.3388 </r>
       <r>    -7.6423    19.8177   144.0000 </r>
       <r>    -7.5413    32.7234   147.3024 </r>
       <r>    -7.4404     0.0000   148.0000 </r>
       <r>    -7.3395     0.0000   148.0000 </r>
       <r>    -7.2386     0.0000   148.0000 </r>
       <r>    -7.1377     0.0000   148.0000 </r>
       <r>    -7.0367     0.0000   148.0000 </r>
       <r>    -6.9358     0.0000   148.0000 </r>
       <r>    -6.8349    41.1632   152.1542 </r>
       <r>    -6.7340    12.7983   154.1922 </r>
       <r>    -6.6331    44.4326   159.2176 </r>
       <r>    -6.5321     0.0752   162.0076 </r>
       <r>    -6.4312    28.9399   165.3207 </r>
       <r>    -6.3303     0.0000   166.0000 </r>
       <r>    -6.2294     0.0000   166.0000 </r>
       <r>    -6.1285     0.0000   166.0000 </r>
       <r>    -6.0275     0.0000   166.0000 </r>
       <r>    -5.9266     0.0000   166.0000 </r>
       <r>    -5.8257    58.6373   171.9177 </r>
       <r>    -5.7248     0.0001   172.0000 </r>
       <r>    -5.6239    39.6560   176.0021 </r>
       <r>    -5.5229    34.6747   180.0000 </r>
       <r>    -5.4220     0.0000   180.0000 </r>
       <r>    -5.3211     0.0000   180.0000 </r>
       <r>    -5.2202     0.0000   180.0000 </r>
       <r>    -5.1193    19.8162   181.9999 </r>
       <r>    -5.0183     0.0000   182.0000 </r>
       <r>    -4.9174    39.6354   186.0000 </r>
       <r>    -4.8165     0.0000   186.0000 </r>
       <r>    -4.7156     0.0000   186.0000 </r>
       <r>    -4.6147     0.0000   186.0000 </r>
       <r>    -4.5137     0.0000   186.0000 </r>
       <r>    -4.4128     0.0000   186.0000 </r>
       <r>    -4.3119     0.0000   186.0000 </r>
       <r>    -4.2110     0.0000   186.0000 </r>
       <r>    -4.1101     0.0000   186.0000 </r>
       <r>    -4.0091     0.0000   186.0000 </r>
       <r>    -3.9082     0.0000   186.0000 </r>
       <r>    -3.8073     0.0000   186.0000 </r>
       <r>    -3.7064     0.0000   186.0000 </r>
       <r>    -3.6055     0.0000   186.0000 </r>
       <r>    -3.5045     0.0000   186.0000 </r>
       <r>    -3.4036     0.0000   186.0000 </r>
       <r>    -3.3027     0.0000   186.0000 </r>
       <r>    -3.2018     0.0000   186.0000 </r>
       <r>    -3.1009     0.0000   186.0000 </r>
       <r>    -2.9999     0.0000   186.0000 </r>
       <r>    -2.8990     0.0048   186.0005 </r>
       <r>    -2.7981    25.9729   188.6217 </r>
       <r>    -2.6972     2.6185   188.9643 </r>
       <r>    -2.5963     7.3284   189.7729 </r>
       <r>    -2.4953     0.0000   190.0000 </r>
       <r>    -2.3944     4.8163   190.4861 </r>
       <r>    -2.2935     4.1647   191.0537 </r>
       <r>    -2.1926     1.5476   191.2229 </r>
       <r>    -2.0917     1.0508   191.3727 </r>
       <r>    -1.9907     0.8303   191.5171 </r>
       <r>    -1.8898     0.9751   191.6651 </r>
       <r>    -1.7889     1.0583   191.8068 </r>
       <r>    -1.6880    16.8439   194.0000 </r>
       <r>    -1.5871     0.8867   194.0895 </r>
       <r>    -1.4861    46.0799   198.8171 </r>
       <r>    -1.3852     7.2826   200.3017 </r>
       <r>    -1.2843     0.9910   200.4333 </r>
       <r>    -1.1834     1.3202   200.5666 </r>
       <r>    -1.0825     1.2414   200.6919 </r>
       <r>    -0.9815     1.0364   200.8046 </r>
       <r>    -0.8806     0.8283   200.9503 </r>
       <r>    -0.7797     3.3201   201.3351 </r>
       <r>    -0.6788     3.0628   201.7758 </r>
       <r>    -0.5779     0.9908   202.0000 </r>
       <r>    -0.4769     0.0020   202.0002 </r>
       <r>    -0.3760     3.8084   202.4510 </r>
       <r>    -0.2751     4.4810   202.9856 </r>
       <r>    -0.1742     1.1533   203.1497 </r>
       <r>    -0.0733     1.1466   203.3157 </r>
       <r>     0.0277     8.2084   204.1951 </r>
       <r>     0.1286    13.3754   205.7166 </r>
       <r>     0.2295    21.1820   208.3715 </r>
       <r>     0.3304     3.4035   209.2768 </r>
       <r>     0.4313     9.1094   210.2860 </r>
       <r>     0.5323    15.3635   212.0505 </r>
       <r>     0.6332    11.2606   213.4032 </r>
       <r>     0.7341     6.3215   214.5047 </r>
       <r>     0.8350    16.5803   216.8067 </r>
       <r>     0.9359    10.3792   218.1142 </r>
       <r>     1.0369    20.2933   220.3147 </r>
       <r>     1.1378    28.4915   223.9754 </r>
       <r>     1.2387    13.7100   225.4503 </r>
       <r>     1.3396    24.7761   228.4006 </r>
       <r>     1.4405    13.3459   230.3469 </r>
       <r>     1.5415    18.3490   232.4852 </r>
       <r>     1.6424    25.3973   236.0298 </r>
       <r>     1.7433    28.1050   239.2697 </r>
       <r>     1.8442    23.8648   242.6752 </r>
       <r>     1.9451    32.3563   246.4654 </r>
       <r>     2.0461    32.9884   250.6960 </r>
       <r>     2.1470    32.9574   255.0597 </r>
       <r>     2.2479     5.6143   256.0000 </r>
       <r>     2.3488     0.0000   256.0000 </r>
       <r>     2.4497     0.0000   256.0000 </r>
       <r>     2.5507     0.0000   256.0000 </r>
       <r>     2.6516     0.0000   256.0000 </r>
       <r>     2.7525     0.0000   256.0000 </r>
       <r>     2.8534     0.0000   256.0000 </r>
       <r>     2.9543     0.0000   256.0000 </r>
       <r>     3.0553     0.0000   256.0000 </r>
       <r>     3.1562     0.0000   256.0000 </r>
       <r>     3.2571     0.0000   256.0000 </r>
       <r>     3.3580     0.0000   256.0000 </r>
       <r>     3.4589     0.0000   256.0000 </r>
       <r>     3.5599     0.0000   256.0000 </r>
      </set>
     </set>
    </array>
   </total>
  </dos>
 </calculation>
 <structure name="finalpos" >
  <crystal>
   <varray name="basis" >
    <v>      14.31960947      -0.00000004       0.00000000 </v>
    <v>      -7.15980470      12.40114559       0.00000000 </v>
    <v>       0.00000000       0.00000000      20.00000000 </v>
   </varray>
   <i name="volume">   3551.59123146 </i>
   <varray name="rec_basis" >
    <v>       0.06983431       0.04031886       0.00000000 </v>
    <v>       0.00000000       0.08063771       0.00000000 </v>
    <v>       0.00000000       0.00000000       0.05000000 </v>
   </varray>
  </crystal>
  <varray name="positions" >
   <v>       0.61857329       0.22277421       0.46916905 </v>
   <v>       0.60420091       0.38142671       0.46916905 </v>
   <v>       0.77722579       0.39579909       0.46916905 </v>
   <v>       0.05788784       0.11108682       0.47143213 </v>
   <v>       0.05319898       0.94211216       0.47143213 </v>
   <v>       0.88891318       0.94680102       0.47143213 </v>
   <v>       0.78701340       0.72912743       0.44009133 </v>
   <v>       0.94211404       0.21298660       0.44009133 </v>
   <v>       0.27087257       0.05788596       0.44009133 </v>
   <v>       0.92778237       0.72255894       0.50072030 </v>
   <v>       0.79477657       0.07221763       0.50072030 </v>
   <v>       0.27744106       0.20522343       0.50072030 </v>
   <v>       0.37926467       0.10657801       0.43766979 </v>
   <v>       0.42375311       0.04891765       0.40038183 </v>
   <v>       0.36119952       0.92572448       0.40109956 </v>
   <v>       0.38465445       0.25366900       0.49896491 </v>
   <v>       0.44202466       0.20916021       0.46829862 </v>
   <v>       0.36288283       0.98360269       0.33881859 </v>
   <v>       0.72669800       0.28761744       0.46891021 </v>
   <v>       0.56091944       0.27330200       0.46891021 </v>
   <v>       0.71238256       0.43908056       0.46891021 </v>
   <v>       0.94969220       0.05461606       0.47142442 </v>
   <v>       0.10492385       0.05030780       0.47142442 </v>
   <v>       0.94538394       0.89507615       0.47142442 </v>
   <v>       0.72731334       0.62073533       0.43766979 </v>
   <v>       0.76713556       0.55797534       0.46829862 </v>
   <v>       0.88230399       0.77416485       0.47074177 </v>
   <v>       0.62516454       0.57624689       0.40038183 </v>
   <v>       0.56452496       0.63880048       0.40109956 </v>
   <v>       0.62071987       0.63711717       0.33881859 </v>
   <v>       0.89342199       0.27268666       0.43766979 </v>
   <v>       0.79083979       0.23286444       0.46829862 </v>
   <v>       0.89186086       0.11769601       0.47074177 </v>
   <v>       0.95108235       0.37483546       0.40038183 </v>
   <v>       0.07427552       0.43547504       0.40109956 </v>
   <v>       0.01639731       0.37928013       0.33881859 </v>
   <v>       0.22583515       0.10813914       0.47074177 </v>
   <v>       0.86901455       0.61534555       0.49896491 </v>
   <v>       0.74633100       0.13098545       0.49896491 </v>
   <v>       0.40954223       0.88648624       0.40369935 </v>
   <v>       0.42934705       0.33226748       0.52341741 </v>
   <v>       0.51100974       0.08696916       0.39983564 </v>
   <v>       0.28958986       0.98499221       0.32617506 </v>
   <v>       0.57334407       0.58752314       0.29686256 </v>
   <v>       0.47694401       0.59045777       0.40369935 </v>
   <v>       0.57595943       0.48899026       0.39983564 </v>
   <v>       0.69540235       0.71041014       0.32617506 </v>
   <v>       0.60210764       0.71322556       0.43006526 </v>
   <v>       0.91303084       0.42404057       0.39983564 </v>
   <v>       0.01417906       0.42665593       0.29686256 </v>
   <v>       0.01500779       0.30459765       0.32617506 </v>
   <v>       0.11111792       0.39789236       0.43006526 </v>
   <v>       0.11351376       0.52305599       0.40369935 </v>
   <v>       0.41247686       0.98582094       0.29686256 </v>
   <v>       0.28677444       0.88888208       0.43006526 </v>
   <v>       0.90292043       0.57065295       0.52341741 </v>
   <v>       0.66773252       0.09707957       0.52341741 </v>
  </varray>
 </structure>
</modeling>
