<?xml version="1.0" encoding="ISO-8859-1"?>
<modeling>
 <generator>
  <i name="program" type="string">vasp </i>
  <i name="version" type="string">5.4.4.18Apr17-6-g9f103f2a35  </i>
  <i name="subversion" type="string">(build Jun 07 2020 16:50:00) complex            parallel </i>
  <i name="platform" type="string">LinuxIFC </i>
  <i name="date" type="string">2023 02 16 </i>
  <i name="time" type="string">10:57:06 </i>
 </generator>
 <incar>
  <i type="string" name="SYSTEM">Simulation for cell shape cell volume r</i>
  <i type="int" name="ISTART">     1</i>
  <i type="string" name="PREC">high</i>
  <i type="string" name="ALGO">48</i>
  <i type="int" name="ICHARG">    11</i>
  <i type="int" name="NELM">   200</i>
  <i type="int" name="IBRION">    -1</i>
  <i name="EDIFF">      0.00001000</i>
  <i name="EDIFFG">     -0.01000000</i>
  <i type="int" name="NSW">     0</i>
  <i type="int" name="ISIF">     2</i>
  <i name="ENCUT">    500.00000000</i>
  <i name="POTIM">      0.30000000</i>
  <i type="string" name="LREAL">A</i>
  <i type="int" name="ISMEAR">     0</i>
  <i name="SIGMA">      0.01000000</i>
  <i type="int" name="NWRITE">     0</i>
  <i type="logical" name="LWAVE"> F  </i>
  <i type="logical" name="LCHARG"> F  </i>
  <v type="int" name="KPOINT_BSE">    -1     0     0     0</v>
  <i type="int" name="NELM">   200</i>
  <i type="string" name="GGA">PE</i>
 </incar>
 <structure name="primitive_cell" >
  <crystal>
   <varray name="basis" >
    <v>      34.51741253      -0.02470030       0.00000000 </v>
    <v>     -17.26955249      29.87209556       0.00000000 </v>
    <v>       0.00000000       0.00000000      20.00000000 </v>
   </varray>
   <i name="volume">  20613.61765080 </i>
   <varray name="rec_basis" >
    <v>       0.02898288       0.01675548       0.00000000 </v>
    <v>       0.00002397       0.03348991       0.00000000 </v>
    <v>       0.00000000       0.00000000       0.05000000 </v>
   </varray>
  </crystal>
  <varray name="positions" >
   <v>      -0.10476338       0.07838539       0.31956459 </v>
   <v>      -0.12526953       0.07054372       0.37326823 </v>
   <v>      -0.16505519       0.05951771       0.38017349 </v>
   <v>      -0.09962165       0.07363765       0.43449607 </v>
   <v>      -0.07571726       0.03359829       0.38757685 </v>
   <v>      -0.07592672       0.05077513       0.43319055 </v>
   <v>      -0.08555991       0.16800031       0.41119554 </v>
   <v>      -0.10100343       0.09777942       0.49012563 </v>
   <v>      -0.11337821       0.15842830       0.44575317 </v>
   <v>      -0.12566695       0.12263373       0.49000478 </v>
   <v>      -0.05281479       0.05008954       0.49022131 </v>
   <v>      -0.07689085       0.09649730      -0.45414364 </v>
   <v>      -0.05376180       0.07307959      -0.45275662 </v>
   <v>      -0.13624129       0.18208840       0.44623686 </v>
   <v>      -0.16139338       0.11066768      -0.46576594 </v>
   <v>      -0.02786419       0.02534031       0.49034750 </v>
   <v>      -0.12660239       0.20969092       0.41123749 </v>
   <v>      -0.17125158       0.08275877      -0.43126170 </v>
   <v>      -0.08765826      -0.03987277       0.49109002 </v>
   <v>      -0.05112339      -0.02155598       0.49092433 </v>
   <v>       0.03729814       0.08522587       0.48960545 </v>
   <v>      -0.17224849       0.17022660       0.49015984 </v>
   <v>      -0.07411798       0.12196274      -0.39285556 </v>
   <v>      -0.18456405       0.13402141      -0.46610004 </v>
   <v>       0.01902026       0.04867915       0.49000182 </v>
   <v>      -0.03658485       0.07297676      -0.40709081 </v>
   <v>      -0.06256882       0.16190422      -0.39960246 </v>
   <v>      -0.21207930       0.12466113      -0.43106164 </v>
   <v>      -0.08281055       0.10114571      -0.33934234 </v>
   <v>      -0.02785368      -0.04512461       0.49117635 </v>
   <v>       0.04263332       0.02544856       0.49029923 </v>
   <v>      -0.19659819       0.19533964       0.49043536 </v>
   <v>       0.09908001       0.07388713       0.38790542 </v>
   <v>       0.01902288      -0.02145340       0.49090487 </v>
   <v>      -0.26201134       0.13585639       0.49651687 </v>
   <v>      -0.13633793       0.26034190       0.48530195 </v>
   <v>      -0.03574181      -0.10142711       0.38916908 </v>
   <v>      -0.24359477       0.17238276       0.49428237 </v>
   <v>      -0.05273029      -0.09486791       0.49142531 </v>
   <v>      -0.17284638       0.24240507       0.48724343 </v>
   <v>       0.11634625       0.07365985       0.43339358 </v>
   <v>       0.09236459       0.05027715       0.49018133 </v>
   <v>      -0.05321322      -0.11877537       0.43464823 </v>
   <v>       0.03729587      -0.03968196       0.49113966 </v>
   <v>      -0.07622500      -0.11875292      -0.45179054 </v>
   <v>      -0.07637355      -0.10140717      -0.40633973 </v>
   <v>      -0.33224340       0.12954136       0.41634196 </v>
   <v>      -0.26699544       0.19577393       0.49537715 </v>
   <v>      -0.19582283       0.26616918       0.48691090 </v>
   <v>      -0.08120660      -0.17556948       0.32113459 </v>
   <v>       0.17298590       0.10248192       0.31981305 </v>
   <v>       0.16294809       0.09696724       0.43470768 </v>
   <v>      -0.07632632      -0.16537713       0.43598877 </v>
   <v>       0.11618700       0.05060002      -0.45304498 </v>
   <v>       0.18568632       0.12279297       0.37368018 </v>
   <v>       0.09880084       0.03321351      -0.40753413 </v>
   <v>      -0.09984950      -0.16536520      -0.45312036 </v>
   <v>      -0.24263257       0.24263841       0.49095771 </v>
   <v>      -0.07320957      -0.18801979       0.37490626 </v>
   <v>      -0.10084301      -0.19086125       0.49144238 </v>
   <v>       0.21466305       0.16251378       0.38092406 </v>
   <v>      -0.34549156       0.14280601       0.45384378 </v>
   <v>      -0.31635911       0.17446091      -0.49962912 </v>
   <v>      -0.17419882       0.31576949       0.48357873 </v>
   <v>      -0.20152218       0.31524587       0.38576946 </v>
   <v>       0.16276791       0.07338339      -0.45442107 </v>
   <v>       0.18836344       0.09775661       0.49011068 </v>
   <v>      -0.17086157      -0.24569380       0.41223890 </v>
   <v>      -0.12596357      -0.18797997      -0.39222638 </v>
   <v>      -0.26064580       0.26111833       0.49059449 </v>
   <v>      -0.14131055       0.32977783      -0.41960647 </v>
   <v>      -0.18361294       0.33534763       0.42921929 </v>
   <v>      -0.16576387      -0.21662405      -0.39982061 </v>
   <v>      -0.14995137       0.34325598      -0.46270308 </v>
   <v>      -0.06207406      -0.21667127       0.38198165 </v>
   <v>      -0.10585114      -0.17554469      -0.33819448 </v>
   <v>      -0.12569185      -0.24044643       0.49127476 </v>
   <v>      -0.39055878       0.13090730       0.45159707 </v>
   <v>      -0.16132377      -0.26396889       0.44677049 </v>
   <v>      -0.41223828       0.10824804       0.41269306 </v>
   <v>      -0.33438432       0.19036022      -0.45103389 </v>
   <v>      -0.31239961       0.21388068      -0.41318149 </v>
   <v>       0.23794208       0.12220450       0.49003601 </v>
   <v>       0.18515754       0.06984768      -0.39337965 </v>
   <v>       0.17300664       0.07817325      -0.33960898 </v>
   <v>       0.24394423       0.16767371      -0.43089389 </v>
   <v>      -0.17293049       0.37986066       0.43268360 </v>
   <v>       0.24294563       0.08221768       0.41086907 </v>
   <v>      -0.13894015       0.38805680      -0.46194717 </v>
   <v>       0.26188415       0.15783033      -0.46558525 </v>
   <v>       0.26132582       0.10996357       0.44553371 </v>
   <v>      -0.40741320       0.14978653       0.49686110 </v>
   <v>      -0.16965134       0.40121580       0.32219680 </v>
   <v>      -0.11373414      -0.26423544      -0.46457541 </v>
   <v>      -0.37934136       0.17798287      -0.45237646 </v>
   <v>      -0.18484128      -0.31054924       0.44693316 </v>
   <v>      -0.08592033      -0.24616070      -0.42992536 </v>
   <v>       0.21327875       0.05802017      -0.40049653 </v>
   <v>      -0.15207655       0.40773778       0.48792277 </v>
   <v>      -0.18894796       0.39611615       0.37637518 </v>
   <v>      -0.21231730      -0.32852501       0.41173859 </v>
   <v>      -0.38654446       0.21731143       0.38851168 </v>
   <v>      -0.11356824       0.41521909      -0.40333477 </v>
   <v>      -0.12157622       0.39586317      -0.34852669 </v>
   <v>      -0.43856093       0.16727624       0.32201814 </v>
   <v>      -0.42455742       0.18595396       0.37667737 </v>
   <v>      -0.39228800       0.19236295      -0.41622106 </v>
   <v>       0.30845462       0.18099648      -0.46610776 </v>
   <v>      -0.13693737      -0.31082738      -0.46525164 </v>
   <v>       0.30789726       0.13282032       0.44583103 </v>
   <v>      -0.17298488      -0.33473315       0.49075510 </v>
   <v>      -0.22061874       0.40234290       0.38742547 </v>
   <v>      -0.45069827       0.14855047       0.48786176 </v>
   <v>      -0.46989228       0.08233558      -0.41338548 </v>
   <v>      -0.08572107       0.45507517      -0.41340569 </v>
   <v>       0.32674436       0.20845833      -0.43099717 </v>
   <v>      -0.15335664       0.44981511       0.49653392 </v>
   <v>      -0.45725678       0.16964843       0.43252593 </v>
   <v>       0.33222277       0.16878480       0.48981257 </v>
   <v>       0.32574954       0.12322121       0.41060859 </v>
   <v>      -0.11135305       0.48670904       0.41281456 </v>
   <v>      -0.12756217      -0.32901420      -0.43031812 </v>
   <v>      -0.26295236      -0.38894589       0.48577998 </v>
   <v>      -0.48270021       0.10956452      -0.40380203 </v>
   <v>      -0.19634137       0.42226175      -0.41695730 </v>
   <v>      -0.13416969       0.48568436       0.45143505 </v>
   <v>      -0.48387132       0.13524053      -0.46247614 </v>
   <v>      -0.19805556      -0.38426384       0.49065721 </v>
   <v>      -0.18170287       0.44968436      -0.45300346 </v>
   <v>       0.38785780       0.25863217       0.49642905 </v>
   <v>      -0.24509988      -0.40757184       0.48739281 </v>
   <v>      -0.49097248       0.18042156       0.42859580 </v>
   <v>       0.38174179       0.19319871       0.48981110 </v>
   <v>      -0.49533341       0.11668963      -0.34947521 </v>
   <v>      -0.49278495       0.19852806       0.38513929 </v>
   <v>       0.40590144       0.24021195       0.49382636 </v>
   <v>      -0.13868015      -0.39024520       0.49666056 </v>
   <v>      -0.17518713      -0.40836076       0.49424023 </v>
   <v>       0.48241645       0.14629745      -0.46378229 </v>
   <v>      -0.14585841      -0.48100084       0.45357500 </v>
   <v>      -0.19384316       0.48242745      -0.45175422 </v>
   <v>       0.38634884       0.13294167       0.48428229 </v>
   <v>       0.47965884       0.17080889       0.48251934 </v>
   <v>       0.40499457       0.16946219       0.48625697 </v>
   <v>      -0.26894859      -0.45436253       0.48664037 </v>
   <v>      -0.13230455      -0.45437038       0.41621215 </v>
   <v>       0.45193161       0.32919942       0.41636468 </v>
   <v>      -0.17759017      -0.48347248       0.49983862 </v>
   <v>       0.45995858       0.13747512      -0.42106254 </v>
   <v>      -0.21744097       0.48089289      -0.41409691 </v>
   <v>      -0.33208838      -0.46391379      -0.41896813 </v>
   <v>      -0.31855277      -0.48236582       0.48356823 </v>
   <v>       0.45274369       0.26363090       0.49468717 </v>
   <v>      -0.19866851      -0.45522620       0.49487481 </v>
   <v>      -0.34577756      -0.48589527      -0.46221345 </v>
   <v>      -0.48830111       0.25730699       0.48938386 </v>
   <v>      -0.24550762      -0.47769847       0.49028334 </v>
   <v>       0.47847947       0.34230995       0.45384165 </v>
   <v>      -0.31850670       0.49123430       0.38520066 </v>
   <v>      -0.26404921       0.48576376       0.48959129 </v>
   <v>      -0.33837628       0.48883523       0.42903269 </v>
   <v>       0.45177380       0.19245600       0.48569829 </v>
   <v>       0.48095024       0.31299623      -0.49999552 </v>
   <v>       0.47516949       0.23927589       0.48984977 </v>
   <v>      -0.40616231       0.38457926       0.38699917 </v>
   <v>      -0.39055433       0.48020510      -0.46119111 </v>
   <v>      -0.48925572       0.40924042       0.41332188 </v>
   <v>      -0.48827406       0.38740316       0.45191794 </v>
   <v>      -0.41742887       0.47812723      -0.40205225 </v>
   <v>      -0.38284428       0.45486411       0.43276963 </v>
   <v>      -0.39779863       0.48920478      -0.34743911 </v>
   <v>      -0.45728162       0.46623421      -0.41153990 </v>
   <v>      -0.41044055       0.44754087       0.48846112 </v>
   <v>      -0.48355982       0.30872902      -0.41383540 </v>
   <v>      -0.39930246       0.42276073       0.37620737 </v>
   <v>      -0.40394141       0.43734901       0.32208168 </v>
   <v>      -0.48505027       0.33084692      -0.45144958 </v>
   <v>      -0.42497849       0.38863885      -0.41640133 </v>
   <v>      -0.45246636       0.40409962       0.49709253 </v>
   <v>      -0.45235294       0.37582345      -0.45251676 </v>
  </varray>
 </structure>
 <varray name="primitive_index" >
  <v type="int" >        1 </v>
  <v type="int" >      169 </v>
  <v type="int" >        2 </v>
  <v type="int" >      100 </v>
  <v type="int" >       37 </v>
  <v type="int" >      101 </v>
  <v type="int" >       39 </v>
  <v type="int" >      136 </v>
  <v type="int" >       99 </v>
  <v type="int" >      133 </v>
  <v type="int" >      137 </v>
  <v type="int" >      139 </v>
  <v type="int" >      138 </v>
  <v type="int" >       98 </v>
  <v type="int" >      134 </v>
  <v type="int" >       73 </v>
  <v type="int" >       38 </v>
  <v type="int" >       55 </v>
  <v type="int" >       27 </v>
  <v type="int" >       74 </v>
  <v type="int" >       26 </v>
  <v type="int" >       97 </v>
  <v type="int" >      175 </v>
  <v type="int" >      135 </v>
  <v type="int" >       78 </v>
  <v type="int" >       57 </v>
  <v type="int" >       13 </v>
  <v type="int" >       56 </v>
  <v type="int" >       14 </v>
  <v type="int" >       75 </v>
  <v type="int" >       77 </v>
  <v type="int" >       83 </v>
  <v type="int" >       43 </v>
  <v type="int" >       76 </v>
  <v type="int" >       28 </v>
  <v type="int" >       29 </v>
  <v type="int" >       40 </v>
  <v type="int" >       82 </v>
  <v type="int" >      144 </v>
  <v type="int" >       84 </v>
  <v type="int" >      111 </v>
  <v type="int" >      151 </v>
  <v type="int" >      106 </v>
  <v type="int" >       25 </v>
  <v type="int" >      145 </v>
  <v type="int" >       60 </v>
  <v type="int" >       53 </v>
  <v type="int" >       81 </v>
  <v type="int" >       79 </v>
  <v type="int" >        3 </v>
  <v type="int" >        5 </v>
  <v type="int" >      110 </v>
  <v type="int" >      105 </v>
  <v type="int" >      152 </v>
  <v type="int" >      171 </v>
  <v type="int" >       63 </v>
  <v type="int" >      146 </v>
  <v type="int" >       80 </v>
  <v type="int" >      170 </v>
  <v type="int" >      143 </v>
  <v type="int" >        6 </v>
  <v type="int" >      128 </v>
  <v type="int" >      164 </v>
  <v type="int" >      116 </v>
  <v type="int" >       48 </v>
  <v type="int" >      153 </v>
  <v type="int" >      150 </v>
  <v type="int" >       42 </v>
  <v type="int" >      176 </v>
  <v type="int" >       30 </v>
  <v type="int" >       64 </v>
  <v type="int" >      117 </v>
  <v type="int" >       15 </v>
  <v type="int" >      158 </v>
  <v type="int" >        4 </v>
  <v type="int" >       16 </v>
  <v type="int" >      140 </v>
  <v type="int" >      127 </v>
  <v type="int" >      104 </v>
  <v type="int" >       52 </v>
  <v type="int" >      165 </v>
  <v type="int" >       71 </v>
  <v type="int" >      147 </v>
  <v type="int" >      177 </v>
  <v type="int" >       18 </v>
  <v type="int" >       61 </v>
  <v type="int" >      118 </v>
  <v type="int" >       45 </v>
  <v type="int" >      157 </v>
  <v type="int" >      148 </v>
  <v type="int" >      109 </v>
  <v type="int" >      126 </v>
  <v type="int" >        8 </v>
  <v type="int" >      141 </v>
  <v type="int" >      166 </v>
  <v type="int" >      103 </v>
  <v type="int" >       58 </v>
  <v type="int" >       17 </v>
  <v type="int" >      115 </v>
  <v type="int" >      172 </v>
  <v type="int" >       41 </v>
  <v type="int" >       11 </v>
  <v type="int" >      178 </v>
  <v type="int" >       19 </v>
  <v type="int" >       12 </v>
  <v type="int" >      174 </v>
  <v type="int" >       72 </v>
  <v type="int" >      149 </v>
  <v type="int" >      142 </v>
  <v type="int" >      108 </v>
  <v type="int" >      102 </v>
  <v type="int" >        7 </v>
  <v type="int" >      129 </v>
  <v type="int" >       24 </v>
  <v type="int" >       20 </v>
  <v type="int" >       62 </v>
  <v type="int" >      112 </v>
  <v type="int" >      132 </v>
  <v type="int" >      107 </v>
  <v type="int" >       44 </v>
  <v type="int" >       46 </v>
  <v type="int" >       59 </v>
  <v type="int" >       32 </v>
  <v type="int" >      180 </v>
  <v type="int" >       66 </v>
  <v type="int" >      113 </v>
  <v type="int" >      167 </v>
  <v type="int" >       89 </v>
  <v type="int" >      156 </v>
  <v type="int" >       34 </v>
  <v type="int" >       90 </v>
  <v type="int" >      131 </v>
  <v type="int" >       95 </v>
  <v type="int" >       23 </v>
  <v type="int" >       54 </v>
  <v type="int" >       94 </v>
  <v type="int" >       31 </v>
  <v type="int" >       88 </v>
  <v type="int" >      168 </v>
  <v type="int" >      114 </v>
  <v type="int" >      155 </v>
  <v type="int" >       35 </v>
  <v type="int" >      130 </v>
  <v type="int" >       96 </v>
  <v type="int" >       85 </v>
  <v type="int" >       47 </v>
  <v type="int" >       50 </v>
  <v type="int" >      154 </v>
  <v type="int" >       70 </v>
  <v type="int" >       65 </v>
  <v type="int" >       67 </v>
  <v type="int" >      123 </v>
  <v type="int" >       93 </v>
  <v type="int" >       87 </v>
  <v type="int" >      163 </v>
  <v type="int" >       36 </v>
  <v type="int" >       86 </v>
  <v type="int" >      121 </v>
  <v type="int" >       51 </v>
  <v type="int" >       33 </v>
  <v type="int" >      124 </v>
  <v type="int" >       91 </v>
  <v type="int" >      159 </v>
  <v type="int" >       92 </v>
  <v type="int" >        9 </v>
  <v type="int" >      162 </v>
  <v type="int" >       49 </v>
  <v type="int" >      120 </v>
  <v type="int" >      179 </v>
  <v type="int" >      125 </v>
  <v type="int" >       21 </v>
  <v type="int" >       22 </v>
  <v type="int" >      122 </v>
  <v type="int" >       68 </v>
  <v type="int" >      173 </v>
  <v type="int" >       10 </v>
  <v type="int" >      160 </v>
  <v type="int" >       69 </v>
  <v type="int" >      119 </v>
  <v type="int" >      161 </v>
 </varray>
 <kpoints>
  <generation param="listgenerated">
   <i name="divisions" type="int">      20 </i>
   <v>       0.00000000       0.00000000       0.00000000 </v>
   <v>       0.50000000       0.00000000       0.00000000 </v>
   <v>       0.33333333       0.33333333       0.00000000 </v>
   <v>       0.00000000       0.00000000       0.00000000 </v>
  </generation>
  <varray name="kpointlist" >
   <v>       0.00000000       0.00000000       0.00000000 </v>
   <v>       0.02631579       0.00000000       0.00000000 </v>
   <v>       0.05263158       0.00000000       0.00000000 </v>
   <v>       0.07894737       0.00000000       0.00000000 </v>
   <v>       0.10526316       0.00000000       0.00000000 </v>
   <v>       0.13157895       0.00000000       0.00000000 </v>
   <v>       0.15789474       0.00000000       0.00000000 </v>
   <v>       0.18421053       0.00000000       0.00000000 </v>
   <v>       0.21052632       0.00000000       0.00000000 </v>
   <v>       0.23684211       0.00000000       0.00000000 </v>
   <v>       0.26315789       0.00000000       0.00000000 </v>
   <v>       0.28947368       0.00000000       0.00000000 </v>
   <v>       0.31578947       0.00000000       0.00000000 </v>
   <v>       0.34210526       0.00000000       0.00000000 </v>
   <v>       0.36842105       0.00000000       0.00000000 </v>
   <v>       0.39473684       0.00000000       0.00000000 </v>
   <v>       0.42105263       0.00000000       0.00000000 </v>
   <v>       0.44736842       0.00000000       0.00000000 </v>
   <v>       0.47368421       0.00000000       0.00000000 </v>
   <v>       0.50000000       0.00000000       0.00000000 </v>
   <v>       0.50000000       0.00000000       0.00000000 </v>
   <v>       0.49122807       0.01754386       0.00000000 </v>
   <v>       0.48245614       0.03508772       0.00000000 </v>
   <v>       0.47368421       0.05263158       0.00000000 </v>
   <v>       0.46491228       0.07017544       0.00000000 </v>
   <v>       0.45614035       0.08771930       0.00000000 </v>
   <v>       0.44736842       0.10526316       0.00000000 </v>
   <v>       0.43859649       0.12280702       0.00000000 </v>
   <v>       0.42982456       0.14035088       0.00000000 </v>
   <v>       0.42105263       0.15789474       0.00000000 </v>
   <v>       0.41228070       0.17543860       0.00000000 </v>
   <v>       0.40350877       0.19298246       0.00000000 </v>
   <v>       0.39473684       0.21052632       0.00000000 </v>
   <v>       0.38596491       0.22807018       0.00000000 </v>
   <v>       0.37719298       0.24561404       0.00000000 </v>
   <v>       0.36842105       0.26315789       0.00000000 </v>
   <v>       0.35964912       0.28070175       0.00000000 </v>
   <v>       0.35087719       0.29824561       0.00000000 </v>
   <v>       0.34210526       0.31578947       0.00000000 </v>
   <v>       0.33333333       0.33333333       0.00000000 </v>
   <v>       0.33333333       0.33333333       0.00000000 </v>
   <v>       0.31578947       0.31578947       0.00000000 </v>
   <v>       0.29824561       0.29824561       0.00000000 </v>
   <v>       0.28070175       0.28070175       0.00000000 </v>
   <v>       0.26315789       0.26315789       0.00000000 </v>
   <v>       0.24561404       0.24561404       0.00000000 </v>
   <v>       0.22807018       0.22807018       0.00000000 </v>
   <v>       0.21052632       0.21052632       0.00000000 </v>
   <v>       0.19298246       0.19298246       0.00000000 </v>
   <v>       0.17543860       0.17543860       0.00000000 </v>
   <v>       0.15789474       0.15789474       0.00000000 </v>
   <v>       0.14035088       0.14035088       0.00000000 </v>
   <v>       0.12280702       0.12280702       0.00000000 </v>
   <v>       0.10526316       0.10526316       0.00000000 </v>
   <v>       0.08771930       0.08771930       0.00000000 </v>
   <v>       0.07017544       0.07017544       0.00000000 </v>
   <v>       0.05263158       0.05263158       0.00000000 </v>
   <v>       0.03508772       0.03508772       0.00000000 </v>
   <v>       0.01754386       0.01754386       0.00000000 </v>
   <v>       0.00000000       0.00000000       0.00000000 </v>
  </varray>
  <varray name="weights" >
   <v>       0.01666667 </v>
   <v>       0.01666667 </v>
   <v>       0.01666667 </v>
   <v>       0.01666667 </v>
   <v>       0.01666667 </v>
   <v>       0.01666667 </v>
   <v>       0.01666667 </v>
   <v>       0.01666667 </v>
   <v>       0.01666667 </v>
   <v>       0.01666667 </v>
   <v>       0.01666667 </v>
   <v>       0.01666667 </v>
   <v>       0.01666667 </v>
   <v>       0.01666667 </v>
   <v>       0.01666667 </v>
   <v>       0.01666667 </v>
   <v>       0.01666667 </v>
   <v>       0.01666667 </v>
   <v>       0.01666667 </v>
   <v>       0.01666667 </v>
   <v>       0.01666667 </v>
   <v>       0.01666667 </v>
   <v>       0.01666667 </v>
   <v>       0.01666667 </v>
   <v>       0.01666667 </v>
   <v>       0.01666667 </v>
   <v>       0.01666667 </v>
   <v>       0.01666667 </v>
   <v>       0.01666667 </v>
   <v>       0.01666667 </v>
   <v>       0.01666667 </v>
   <v>       0.01666667 </v>
   <v>       0.01666667 </v>
   <v>       0.01666667 </v>
   <v>       0.01666667 </v>
   <v>       0.01666667 </v>
   <v>       0.01666667 </v>
   <v>       0.01666667 </v>
   <v>       0.01666667 </v>
   <v>       0.01666667 </v>
   <v>       0.01666667 </v>
   <v>       0.01666667 </v>
   <v>       0.01666667 </v>
   <v>       0.01666667 </v>
   <v>       0.01666667 </v>
   <v>       0.01666667 </v>
   <v>       0.01666667 </v>
   <v>       0.01666667 </v>
   <v>       0.01666667 </v>
   <v>       0.01666667 </v>
   <v>       0.01666667 </v>
   <v>       0.01666667 </v>
   <v>       0.01666667 </v>
   <v>       0.01666667 </v>
   <v>       0.01666667 </v>
   <v>       0.01666667 </v>
   <v>       0.01666667 </v>
   <v>       0.01666667 </v>
   <v>       0.01666667 </v>
   <v>       0.01666667 </v>
  </varray>
 </kpoints>
 <parameters>
  <separator name="general" >
   <i type="string" name="SYSTEM">Simulation for cell shape cell volume r</i>
   <i type="logical" name="LCOMPAT"> F  </i>
  </separator>
  <separator name="electronic" >
   <i type="string" name="PREC">high</i>
   <i name="ENMAX">    500.00000000</i>
   <i name="ENAUG">    644.87300000</i>
   <i name="EDIFF">      0.00001000</i>
   <i type="int" name="IALGO">    38</i>
   <i type="int" name="IWAVPR">    10</i>
   <i type="int" name="NBANDS">   416</i>
   <i name="NELECT">    636.00000000</i>
   <i type="int" name="TURBO">     0</i>
   <i type="int" name="IRESTART">     0</i>
   <i type="int" name="NREBOOT">     0</i>
   <i type="int" name="NMIN">     0</i>
   <i name="EREF">      0.00000000</i>
   <separator name="electronic smearing" >
    <i type="int" name="ISMEAR">     0</i>
    <i name="SIGMA">      0.01000000</i>
    <i name="KSPACING">      0.50000000</i>
    <i type="logical" name="KGAMMA"> T  </i>
   </separator>
   <separator name="electronic projectors" >
    <i type="logical" name="LREAL"> T  </i>
    <v name="ROPT">     -0.00040000     -0.00040000     -0.00040000     -0.00040000</v>
    <i type="int" name="LMAXPAW">  -100</i>
    <i type="int" name="LMAXMIX">     2</i>
    <i type="logical" name="NLSPLINE"> F  </i>
   </separator>
   <separator name="electronic startup" >
    <i type="int" name="ISTART">     1</i>
    <i type="int" name="ICHARG">    11</i>
    <i type="int" name="INIWAV">     1</i>
   </separator>
   <separator name="electronic spin" >
    <i type="int" name="ISPIN">     1</i>
    <i type="logical" name="LNONCOLLINEAR"> F  </i>
    <v name="MAGMOM">      1.00000000      1.00000000      1.00000000      1.00000000      1.00000000      1.00000000      1.00000000      1.00000000      1.00000000      1.00000000      1.00000000      1.00000000      1.00000000      1.00000000      1.00000000      1.00000000      1.00000000      1.00000000      1.00000000      1.00000000
      1.00000000      1.00000000      1.00000000      1.00000000      1.00000000      1.00000000      1.00000000      1.00000000      1.00000000      1.00000000      1.00000000      1.00000000      1.00000000      1.00000000      1.00000000      1.00000000      1.00000000      1.00000000      1.00000000      1.00000000
      1.00000000      1.00000000      1.00000000      1.00000000      1.00000000      1.00000000      1.00000000      1.00000000      1.00000000      1.00000000      1.00000000      1.00000000      1.00000000      1.00000000      1.00000000      1.00000000      1.00000000      1.00000000      1.00000000      1.00000000
      1.00000000      1.00000000      1.00000000      1.00000000      1.00000000      1.00000000      1.00000000      1.00000000      1.00000000      1.00000000      1.00000000      1.00000000      1.00000000      1.00000000      1.00000000      1.00000000      1.00000000      1.00000000      1.00000000      1.00000000
      1.00000000      1.00000000      1.00000000      1.00000000      1.00000000      1.00000000      1.00000000      1.00000000      1.00000000      1.00000000      1.00000000      1.00000000      1.00000000      1.00000000      1.00000000      1.00000000      1.00000000      1.00000000      1.00000000      1.00000000
      1.00000000      1.00000000      1.00000000      1.00000000      1.00000000      1.00000000      1.00000000      1.00000000      1.00000000      1.00000000      1.00000000      1.00000000      1.00000000      1.00000000      1.00000000      1.00000000      1.00000000      1.00000000      1.00000000      1.00000000
      1.00000000      1.00000000      1.00000000      1.00000000      1.00000000      1.00000000      1.00000000      1.00000000      1.00000000      1.00000000      1.00000000      1.00000000      1.00000000      1.00000000      1.00000000      1.00000000      1.00000000      1.00000000      1.00000000      1.00000000
      1.00000000      1.00000000      1.00000000      1.00000000      1.00000000      1.00000000      1.00000000      1.00000000      1.00000000      1.00000000      1.00000000      1.00000000      1.00000000      1.00000000      1.00000000      1.00000000      1.00000000      1.00000000      1.00000000      1.00000000
      1.00000000      1.00000000      1.00000000      1.00000000      1.00000000      1.00000000      1.00000000      1.00000000      1.00000000      1.00000000      1.00000000      1.00000000      1.00000000      1.00000000      1.00000000      1.00000000      1.00000000      1.00000000      1.00000000      1.00000000
</v>
    <i name="NUPDOWN">     -1.00000000</i>
    <i type="logical" name="LSORBIT"> F  </i>
    <v name="SAXIS">      0.00000000      0.00000000      1.00000000</v>
    <i type="logical" name="LSPIRAL"> F  </i>
    <v name="QSPIRAL">      0.00000000      0.00000000      0.00000000</v>
    <i type="logical" name="LZEROZ"> F  </i>
   </separator>
   <separator name="electronic exchange-correlation" >
    <i type="logical" name="LASPH"> F  </i>
    <i type="logical" name="LMETAGGA"> F  </i>
   </separator>
   <separator name="electronic convergence" >
    <i type="int" name="NELM">   200</i>
    <i type="int" name="NELMDL">     0</i>
    <i type="int" name="NELMIN">     2</i>
    <i name="ENINI">    500.00000000</i>
    <separator name="electronic convergence detail" >
     <i type="logical" name="LDIAG"> T  </i>
     <i type="logical" name="LSUBROT"> F  </i>
     <i name="WEIMIN">      0.00000000</i>
     <i name="EBREAK">      0.00000001</i>
     <i name="DEPER">      0.30000000</i>
     <i type="int" name="NRMM">     4</i>
     <i name="TIME">      0.40000000</i>
    </separator>
   </separator>
   <separator name="electronic mixer" >
    <i name="AMIX">      0.40000000</i>
    <i name="BMIX">      1.00000000</i>
    <i name="AMIN">      0.10000000</i>
    <i name="AMIX_MAG">      1.60000000</i>
    <i name="BMIX_MAG">      1.00000000</i>
    <separator name="electronic mixer details" >
     <i type="int" name="IMIX">     4</i>
     <i type="logical" name="MIXFIRST"> F  </i>
     <i type="int" name="MAXMIX">   -45</i>
     <i name="WC">    100.00000000</i>
     <i type="int" name="INIMIX">     1</i>
     <i type="int" name="MIXPRE">     1</i>
     <i type="int" name="MREMOVE">     5</i>
    </separator>
   </separator>
   <separator name="electronic dipolcorrection" >
    <i type="logical" name="LDIPOL"> F  </i>
    <i type="logical" name="LMONO"> F  </i>
    <i type="int" name="IDIPOL">     0</i>
    <i name="EPSILON">      1.00000000</i>
    <v name="DIPOL">   -100.00000000   -100.00000000   -100.00000000</v>
    <i name="EFIELD">      0.00000000</i>
   </separator>
  </separator>
  <separator name="grids" >
   <i type="int" name="NGX">   252</i>
   <i type="int" name="NGY">   252</i>
   <i type="int" name="NGZ">   150</i>
   <i type="int" name="NGXF">   384</i>
   <i type="int" name="NGYF">   384</i>
   <i type="int" name="NGZF">   224</i>
   <i type="logical" name="ADDGRID"> F  </i>
  </separator>
  <separator name="ionic" >
   <i type="int" name="NSW">     0</i>
   <i type="int" name="IBRION">    -1</i>
   <i type="int" name="MDALGO">     0</i>
   <i type="int" name="ISIF">     2</i>
   <i name="PSTRESS">      0.00000000</i>
   <i name="EDIFFG">     -0.01000000</i>
   <i type="int" name="NFREE">     0</i>
   <i name="POTIM">      0.30000000</i>
   <i name="SMASS">     -3.00000000</i>
   <i name="SCALEE">      1.00000000</i>
  </separator>
  <separator name="ionic md" >
   <i name="TEBEG">      0.00010000</i>
   <i name="TEEND">      0.00010000</i>
   <i type="int" name="NBLOCK">     1</i>
   <i type="int" name="KBLOCK">     1</i>
   <i type="int" name="NPACO">   256</i>
   <i name="APACO">     16.00000000</i>
  </separator>
  <separator name="symmetry" >
   <i type="int" name="ISYM">     2</i>
   <i name="SYMPREC">      0.00001000</i>
  </separator>
  <separator name="dos" >
   <i type="int" name="LORBIT">     0</i>
   <v name="RWIGS">     -1.00000000     -1.00000000     -1.00000000     -1.00000000</v>
   <i type="int" name="NEDOS">   301</i>
   <i name="EMIN">     10.00000000</i>
   <i name="EMAX">    -10.00000000</i>
   <i name="EFERMI">      0.00000000</i>
  </separator>
  <separator name="writing" >
   <i type="int" name="NWRITE">     0</i>
   <i type="logical" name="LWAVE"> F  </i>
   <i type="logical" name="LDOWNSAMPLE"> F  </i>
   <i type="logical" name="LCHARG"> F  </i>
   <i type="logical" name="LPARD"> F  </i>
   <i type="logical" name="LVTOT"> F  </i>
   <i type="logical" name="LVHAR"> F  </i>
   <i type="logical" name="LELF"> F  </i>
   <i type="logical" name="LOPTICS"> F  </i>
   <v name="STM">      0.00000000      0.00000000      0.00000000      0.00000000      0.00000000      0.00000000      0.00000000</v>
  </separator>
  <separator name="performance" >
   <i type="int" name="NPAR">    16</i>
   <i type="int" name="NSIM">     4</i>
   <i type="int" name="NBLK">    -1</i>
   <i type="logical" name="LPLANE"> T  </i>
   <i type="logical" name="LSCALAPACK"> T  </i>
   <i type="logical" name="LSCAAWARE"> F  </i>
   <i type="logical" name="LSCALU"> F  </i>
   <i type="logical" name="LASYNC"> F  </i>
   <i type="logical" name="LORBITALREAL"> F  </i>
  </separator>
  <separator name="miscellaneous" >
   <i type="int" name="IDIOT">     3</i>
   <i type="int" name="ISPECIAL">     0</i>
   <i type="logical" name="LMUSIC"> F  </i>
   <v name="POMASS">     16.00000000      1.00000000     12.01100000     14.00100000</v>
   <v name="DARWINR">      0.00000000      0.00000000      0.00000000      0.00000000</v>
   <v name="DARWINV">      1.00000000      1.00000000      1.00000000      1.00000000</v>
   <i type="logical" name="LCORR"> T  </i>
  </separator>
  <i type="logical" name="GGA_COMPAT"> T  </i>
  <i type="logical" name="LBERRY"> F  </i>
  <i type="int" name="ICORELEVEL">     0</i>
  <i type="logical" name="LDAU"> F  </i>
  <i type="int" name="I_CONSTRAINED_M">     0</i>
  <separator name="electronic exchange-correlation" >
   <i type="string" name="GGA">PE</i>
   <i type="int" name="VOSKOWN">     0</i>
   <i type="logical" name="LHFCALC"> F  </i>
   <i type="string" name="PRECFOCK"></i>
   <i type="logical" name="LSYMGRAD"> F  </i>
   <i type="logical" name="LHFONE"> F  </i>
   <i type="logical" name="LRHFCALC"> F  </i>
   <i type="logical" name="LTHOMAS"> F  </i>
   <i type="logical" name="LMODELHF"> F  </i>
   <i name="ENCUT4O">     -1.00000000</i>
   <i type="int" name="EXXOEP">     0</i>
   <i type="int" name="FOURORBIT">     0</i>
   <i name="AEXX">      0.00000000</i>
   <i name="HFALPHA">      0.00000000</i>
   <i name="MCALPHA">      0.00000000</i>
   <i name="ALDAX">      1.00000000</i>
   <i name="AGGAX">      1.00000000</i>
   <i name="ALDAC">      1.00000000</i>
   <i name="AGGAC">      1.00000000</i>
   <i type="int" name="NKREDX">     1</i>
   <i type="int" name="NKREDY">     1</i>
   <i type="int" name="NKREDZ">     1</i>
   <i type="logical" name="SHIFTRED"> F  </i>
   <i type="logical" name="ODDONLY"> F  </i>
   <i type="logical" name="EVENONLY"> F  </i>
   <i type="int" name="LMAXFOCK">     0</i>
   <i type="int" name="NMAXFOCKAE">     0</i>
   <i type="logical" name="LFOCKAEDFT"> F  </i>
   <i name="HFSCREEN">      0.00000000</i>
   <i name="HFSCREENC">      0.00000000</i>
   <i type="int" name="NBANDSGWLOW">     0</i>
  </separator>
  <separator name="vdW DFT" >
   <i type="logical" name="LUSE_VDW"> F  </i>
   <i name="Zab_VDW">     -0.84910000</i>
   <i name="PARAM1">      0.12340000</i>
   <i name="PARAM2">      1.00000000</i>
   <i name="PARAM3">      0.00000000</i>
  </separator>
  <separator name="model GW" >
   <i type="int" name="MODEL_GW">     0</i>
   <i name="MODEL_EPS0">     68.71205884</i>
   <i name="MODEL_ALPHA">      1.00000000</i>
  </separator>
  <separator name="linear response parameters" >
   <i type="logical" name="LEPSILON"> F  </i>
   <i type="logical" name="LRPA"> F  </i>
   <i type="logical" name="LNABLA"> F  </i>
   <i type="logical" name="LVEL"> F  </i>
   <i type="int" name="KINTER">     0</i>
   <i name="CSHIFT">      0.10000000</i>
   <i name="OMEGAMAX">     -1.00000000</i>
   <i name="DEG_THRESHOLD">      0.00200000</i>
   <i name="RTIME">     -0.10000000</i>
   <i name="WPLASMAI">      0.00000000</i>
   <v name="DFIELD">      0.00000000      0.00000000      0.00000000</v>
   <v name="WPLASMA">      0.00000000      0.00000000      0.00000000      0.00000000      0.00000000      0.00000000      0.00000000      0.00000000      0.00000000</v>
  </separator>
  <separator name="orbital magnetization" >
   <i type="logical" name="NUCIND"> F  </i>
   <v name="MAGPOS">      0.00000000      0.00000000      0.00000000</v>
   <i type="logical" name="LNICSALL"> T  </i>
   <i type="logical" name="ORBITALMAG"> F  </i>
   <i type="logical" name="LMAGBLOCH"> F  </i>
   <i type="logical" name="LCHIMAG"> F  </i>
   <i type="logical" name="LGAUGE"> T  </i>
   <i type="int" name="MAGATOM">     0</i>
   <v name="MAGDIPOL">      0.00000000      0.00000000      0.00000000</v>
   <v name="AVECCONST">      0.00000000      0.00000000      0.00000000</v>
  </separator>
  <separator name="response functions" >
   <i type="logical" name="LADDER"> F  </i>
   <i type="logical" name="LRPAFORCE"> F  </i>
   <i type="logical" name="LFXC"> F  </i>
   <i type="logical" name="LHARTREE"> T  </i>
   <i type="int" name="IBSE">     0</i>
   <v type="int" name="KPOINT">    -1     0     0     0</v>
   <i type="logical" name="LTCTE"> F  </i>
   <i type="logical" name="LTETE"> F  </i>
   <i type="logical" name="LTRIPLET"> F  </i>
   <i type="logical" name="LFXCEPS"> F  </i>
   <i type="logical" name="LFXHEG"> F  </i>
   <i type="int" name="NATURALO">     2</i>
   <i type="logical" name="L2ORDER"> F  </i>
   <i type="logical" name="LMP2LT"> F  </i>
   <i type="logical" name="LUSEW"> F  </i>
   <i name="ENCUTGW">     -2.00000000</i>
   <i name="ENCUTGWSOFT">     -2.00000000</i>
   <i name="ENCUTLF">     -1.00000000</i>
   <i type="int" name="LMAXMP2">    -1</i>
   <i name="SCISSOR">      0.00000000</i>
   <i type="int" name="NOMEGA">     0</i>
   <i type="int" name="NOMEGAR">     0</i>
   <i type="int" name="NBANDSGW">    -1</i>
   <i type="int" name="NBANDSO">    -1</i>
   <i type="int" name="NBANDSV">    -1</i>
   <i type="int" name="NELM">   200</i>
   <i type="int" name="NELMHF">     1</i>
   <i type="int" name="DIM">     3</i>
   <i type="int" name="ANTIRES">     0</i>
   <i name="OMEGAMAX">    -30.00000000</i>
   <i name="OMEGAMIN">    -30.00000000</i>
   <i name="OMEGATL">   -200.00000000</i>
   <i type="int" name="OMEGAGRID">   140</i>
   <i name="CSHIFT">     -0.10000000</i>
   <i type="logical" name="SELFENERGY"> F  </i>
   <i type="logical" name="LSPECTRAL"> F  </i>
   <i type="logical" name="LSPECTRALGW"> F  </i>
   <i type="logical" name="LSINGLES"> F  </i>
   <i type="logical" name="LFERMIGW"> F  </i>
   <i type="logical" name="ODDONLYGW"> F  </i>
   <i type="logical" name="EVENONLYGW"> F  </i>
   <i type="int" name="NKREDLFX">     1</i>
   <i type="int" name="NKREDLFY">     1</i>
   <i type="int" name="NKREDLFZ">     1</i>
   <i type="int" name="MAXMEM">  2800</i>
   <i type="int" name="TELESCOPE">     0</i>
   <i type="int" name="TAUPAR">     1</i>
   <i type="int" name="OMEGAPAR">    -1</i>
   <i name="LAMBDA">      1.00000000</i>
  </separator>
  <separator name="External order field" >
   <i name="OFIELD_KAPPA">      0.00000000</i>
   <v name="OFIELD_K">      0.00000000      0.00000000      0.00000000</v>
   <i name="OFIELD_Q6_NEAR">      0.00000000</i>
   <i name="OFIELD_Q6_FAR">      0.00000000</i>
   <i name="OFIELD_A">      0.00000000</i>
  </separator>
  <separator name="solvation model" >
   <i type="logical" name="LSOL"> F  </i>
  </separator>
 </parameters>
 <atominfo>
  <atoms>     180 </atoms>
  <types>       4 </types>
  <array name="atoms" >
   <dimension dim="1">ion</dimension>
   <field type="string">element</field>
   <field type="int">atomtype</field>
   <set>
    <rc><c>O </c><c>   1</c></rc>
    <rc><c>O </c><c>   1</c></rc>
    <rc><c>O </c><c>   1</c></rc>
    <rc><c>O </c><c>   1</c></rc>
    <rc><c>O </c><c>   1</c></rc>
    <rc><c>O </c><c>   1</c></rc>
    <rc><c>O </c><c>   1</c></rc>
    <rc><c>O </c><c>   1</c></rc>
    <rc><c>O </c><c>   1</c></rc>
    <rc><c>O </c><c>   1</c></rc>
    <rc><c>O </c><c>   1</c></rc>
    <rc><c>O </c><c>   1</c></rc>
    <rc><c>O </c><c>   1</c></rc>
    <rc><c>O </c><c>   1</c></rc>
    <rc><c>O </c><c>   1</c></rc>
    <rc><c>O </c><c>   1</c></rc>
    <rc><c>O </c><c>   1</c></rc>
    <rc><c>O </c><c>   1</c></rc>
    <rc><c>O </c><c>   1</c></rc>
    <rc><c>O </c><c>   1</c></rc>
    <rc><c>O </c><c>   1</c></rc>
    <rc><c>O </c><c>   1</c></rc>
    <rc><c>O </c><c>   1</c></rc>
    <rc><c>O </c><c>   1</c></rc>
    <rc><c>H </c><c>   2</c></rc>
    <rc><c>H </c><c>   2</c></rc>
    <rc><c>H </c><c>   2</c></rc>
    <rc><c>H </c><c>   2</c></rc>
    <rc><c>H </c><c>   2</c></rc>
    <rc><c>H </c><c>   2</c></rc>
    <rc><c>H </c><c>   2</c></rc>
    <rc><c>H </c><c>   2</c></rc>
    <rc><c>H </c><c>   2</c></rc>
    <rc><c>H </c><c>   2</c></rc>
    <rc><c>H </c><c>   2</c></rc>
    <rc><c>H </c><c>   2</c></rc>
    <rc><c>H </c><c>   2</c></rc>
    <rc><c>H </c><c>   2</c></rc>
    <rc><c>H </c><c>   2</c></rc>
    <rc><c>H </c><c>   2</c></rc>
    <rc><c>H </c><c>   2</c></rc>
    <rc><c>H </c><c>   2</c></rc>
    <rc><c>H </c><c>   2</c></rc>
    <rc><c>H </c><c>   2</c></rc>
    <rc><c>H </c><c>   2</c></rc>
    <rc><c>H </c><c>   2</c></rc>
    <rc><c>H </c><c>   2</c></rc>
    <rc><c>H </c><c>   2</c></rc>
    <rc><c>H </c><c>   2</c></rc>
    <rc><c>H </c><c>   2</c></rc>
    <rc><c>H </c><c>   2</c></rc>
    <rc><c>H </c><c>   2</c></rc>
    <rc><c>H </c><c>   2</c></rc>
    <rc><c>H </c><c>   2</c></rc>
    <rc><c>H </c><c>   2</c></rc>
    <rc><c>H </c><c>   2</c></rc>
    <rc><c>H </c><c>   2</c></rc>
    <rc><c>H </c><c>   2</c></rc>
    <rc><c>H </c><c>   2</c></rc>
    <rc><c>H </c><c>   2</c></rc>
    <rc><c>H </c><c>   2</c></rc>
    <rc><c>H </c><c>   2</c></rc>
    <rc><c>H </c><c>   2</c></rc>
    <rc><c>H </c><c>   2</c></rc>
    <rc><c>H </c><c>   2</c></rc>
    <rc><c>H </c><c>   2</c></rc>
    <rc><c>H </c><c>   2</c></rc>
    <rc><c>H </c><c>   2</c></rc>
    <rc><c>H </c><c>   2</c></rc>
    <rc><c>H </c><c>   2</c></rc>
    <rc><c>H </c><c>   2</c></rc>
    <rc><c>H </c><c>   2</c></rc>
    <rc><c>C </c><c>   3</c></rc>
    <rc><c>C </c><c>   3</c></rc>
    <rc><c>C </c><c>   3</c></rc>
    <rc><c>C </c><c>   3</c></rc>
    <rc><c>C </c><c>   3</c></rc>
    <rc><c>C </c><c>   3</c></rc>
    <rc><c>C </c><c>   3</c></rc>
    <rc><c>C </c><c>   3</c></rc>
    <rc><c>C </c><c>   3</c></rc>
    <rc><c>C </c><c>   3</c></rc>
    <rc><c>C </c><c>   3</c></rc>
    <rc><c>C </c><c>   3</c></rc>
    <rc><c>C </c><c>   3</c></rc>
    <rc><c>C </c><c>   3</c></rc>
    <rc><c>C </c><c>   3</c></rc>
    <rc><c>C </c><c>   3</c></rc>
    <rc><c>C </c><c>   3</c></rc>
    <rc><c>C </c><c>   3</c></rc>
    <rc><c>C </c><c>   3</c></rc>
    <rc><c>C </c><c>   3</c></rc>
    <rc><c>C </c><c>   3</c></rc>
    <rc><c>C </c><c>   3</c></rc>
    <rc><c>C </c><c>   3</c></rc>
    <rc><c>C </c><c>   3</c></rc>
    <rc><c>C </c><c>   3</c></rc>
    <rc><c>C </c><c>   3</c></rc>
    <rc><c>C </c><c>   3</c></rc>
    <rc><c>C </c><c>   3</c></rc>
    <rc><c>C </c><c>   3</c></rc>
    <rc><c>C </c><c>   3</c></rc>
    <rc><c>C </c><c>   3</c></rc>
    <rc><c>C </c><c>   3</c></rc>
    <rc><c>C </c><c>   3</c></rc>
    <rc><c>C </c><c>   3</c></rc>
    <rc><c>C </c><c>   3</c></rc>
    <rc><c>C </c><c>   3</c></rc>
    <rc><c>C </c><c>   3</c></rc>
    <rc><c>C </c><c>   3</c></rc>
    <rc><c>C </c><c>   3</c></rc>
    <rc><c>C </c><c>   3</c></rc>
    <rc><c>C </c><c>   3</c></rc>
    <rc><c>C </c><c>   3</c></rc>
    <rc><c>C </c><c>   3</c></rc>
    <rc><c>C </c><c>   3</c></rc>
    <rc><c>C </c><c>   3</c></rc>
    <rc><c>C </c><c>   3</c></rc>
    <rc><c>C </c><c>   3</c></rc>
    <rc><c>C </c><c>   3</c></rc>
    <rc><c>C </c><c>   3</c></rc>
    <rc><c>C </c><c>   3</c></rc>
    <rc><c>C </c><c>   3</c></rc>
    <rc><c>C </c><c>   3</c></rc>
    <rc><c>C </c><c>   3</c></rc>
    <rc><c>C </c><c>   3</c></rc>
    <rc><c>C </c><c>   3</c></rc>
    <rc><c>C </c><c>   3</c></rc>
    <rc><c>C </c><c>   3</c></rc>
    <rc><c>C </c><c>   3</c></rc>
    <rc><c>C </c><c>   3</c></rc>
    <rc><c>C </c><c>   3</c></rc>
    <rc><c>C </c><c>   3</c></rc>
    <rc><c>C </c><c>   3</c></rc>
    <rc><c>C </c><c>   3</c></rc>
    <rc><c>C </c><c>   3</c></rc>
    <rc><c>C </c><c>   3</c></rc>
    <rc><c>C </c><c>   3</c></rc>
    <rc><c>C </c><c>   3</c></rc>
    <rc><c>C </c><c>   3</c></rc>
    <rc><c>C </c><c>   3</c></rc>
    <rc><c>C </c><c>   3</c></rc>
    <rc><c>C </c><c>   3</c></rc>
    <rc><c>C </c><c>   3</c></rc>
    <rc><c>C </c><c>   3</c></rc>
    <rc><c>C </c><c>   3</c></rc>
    <rc><c>C </c><c>   3</c></rc>
    <rc><c>C </c><c>   3</c></rc>
    <rc><c>C </c><c>   3</c></rc>
    <rc><c>C </c><c>   3</c></rc>
    <rc><c>C </c><c>   3</c></rc>
    <rc><c>C </c><c>   3</c></rc>
    <rc><c>C </c><c>   3</c></rc>
    <rc><c>C </c><c>   3</c></rc>
    <rc><c>C </c><c>   3</c></rc>
    <rc><c>C </c><c>   3</c></rc>
    <rc><c>C </c><c>   3</c></rc>
    <rc><c>C </c><c>   3</c></rc>
    <rc><c>C </c><c>   3</c></rc>
    <rc><c>C </c><c>   3</c></rc>
    <rc><c>C </c><c>   3</c></rc>
    <rc><c>C </c><c>   3</c></rc>
    <rc><c>C </c><c>   3</c></rc>
    <rc><c>C </c><c>   3</c></rc>
    <rc><c>C </c><c>   3</c></rc>
    <rc><c>C </c><c>   3</c></rc>
    <rc><c>C </c><c>   3</c></rc>
    <rc><c>C </c><c>   3</c></rc>
    <rc><c>N </c><c>   4</c></rc>
    <rc><c>N </c><c>   4</c></rc>
    <rc><c>N </c><c>   4</c></rc>
    <rc><c>N </c><c>   4</c></rc>
    <rc><c>N </c><c>   4</c></rc>
    <rc><c>N </c><c>   4</c></rc>
    <rc><c>N </c><c>   4</c></rc>
    <rc><c>N </c><c>   4</c></rc>
    <rc><c>N </c><c>   4</c></rc>
    <rc><c>N </c><c>   4</c></rc>
    <rc><c>N </c><c>   4</c></rc>
    <rc><c>N </c><c>   4</c></rc>
   </set>
  </array>
  <array name="atomtypes" >
   <dimension dim="1">type</dimension>
   <field type="int">atomspertype</field>
   <field type="string">element</field>
   <field>mass</field>
   <field>valence</field>
   <field type="string">pseudopotential</field>
   <set>
    <rc><c>  24</c><c>O </c><c>     16.00000000</c><c>      6.00000000</c><c>  PAW_PBE O 08Apr2002                   </c></rc>
    <rc><c>  48</c><c>H </c><c>      1.00000000</c><c>      1.00000000</c><c>  PAW_PBE H 15Jun2001                   </c></rc>
    <rc><c>  96</c><c>C </c><c>     12.01100000</c><c>      4.00000000</c><c>  PAW_PBE C 08Apr2002                   </c></rc>
    <rc><c>  12</c><c>N </c><c>     14.00100000</c><c>      5.00000000</c><c>  PAW_PBE N 08Apr2002                   </c></rc>
   </set>
  </array>
 </atominfo>
 <structure name="initialpos" >
  <crystal>
   <varray name="basis" >
    <v>      34.51741253      -0.02470030       0.00000000 </v>
    <v>     -17.26955249      29.87209556       0.00000000 </v>
    <v>       0.00000000       0.00000000      20.00000000 </v>
   </varray>
   <i name="volume">  20613.61765080 </i>
   <varray name="rec_basis" >
    <v>       0.02898288       0.01675548       0.00000000 </v>
    <v>       0.00002397       0.03348991       0.00000000 </v>
    <v>       0.00000000       0.00000000       0.05000000 </v>
   </varray>
  </crystal>
  <varray name="positions" >
   <v>       0.89523662       0.07838539       0.31956459 </v>
   <v>       0.83494481       0.05951771       0.38017349 </v>
   <v>       0.91879340       0.82443052       0.32113459 </v>
   <v>       0.93792594       0.78332873       0.38198165 </v>
   <v>       0.17298590       0.10248192       0.31981305 </v>
   <v>       0.21466305       0.16251378       0.38092406 </v>
   <v>       0.77938126       0.40234290       0.38742547 </v>
   <v>       0.83034866       0.40121580       0.32219680 </v>
   <v>       0.59383769       0.38457926       0.38699917 </v>
   <v>       0.59605859       0.43734901       0.32208168 </v>
   <v>       0.61345554       0.21731143       0.38851168 </v>
   <v>       0.56143907       0.16727624       0.32201814 </v>
   <v>       0.93743118       0.16190422       0.60039754 </v>
   <v>       0.91718945       0.10114571       0.66065766 </v>
   <v>       0.83423613       0.78337595       0.60017939 </v>
   <v>       0.89414886       0.82445531       0.66180552 </v>
   <v>       0.21327875       0.05802017       0.59950347 </v>
   <v>       0.17300664       0.07817325       0.66039102 </v>
   <v>       0.87842378       0.39586317       0.65147331 </v>
   <v>       0.91427893       0.45507517       0.58659431 </v>
   <v>       0.60220137       0.48920478       0.65256089 </v>
   <v>       0.54271838       0.46623421       0.58846010 </v>
   <v>       0.50466659       0.11668963       0.65052479 </v>
   <v>       0.53010772       0.08233558       0.58661452 </v>
   <v>       0.03729587       0.96031804       0.49113966 </v>
   <v>       0.03729814       0.08522587       0.48960545 </v>
   <v>       0.91234174       0.96012723       0.49109002 </v>
   <v>       0.73798866       0.13585639       0.49651687 </v>
   <v>       0.86366207       0.26034190       0.48530195 </v>
   <v>       0.73935420       0.26111833       0.49059449 </v>
   <v>       0.86131985       0.60975480       0.49666056 </v>
   <v>       0.73704764       0.61105411       0.48577998 </v>
   <v>       0.73595079       0.48576376       0.48959129 </v>
   <v>       0.38785780       0.25863217       0.49642905 </v>
   <v>       0.38634884       0.13294167       0.48428229 </v>
   <v>       0.51169889       0.25730699       0.48938386 </v>
   <v>       0.92428274       0.03359829       0.38757685 </v>
   <v>       0.87339761       0.20969092       0.41123749 </v>
   <v>       0.91444009       0.16800031       0.41119554 </v>
   <v>       0.96425819       0.89857289       0.38916908 </v>
   <v>       0.78768270       0.67147499       0.41173859 </v>
   <v>       0.82913843       0.75430620       0.41223890 </v>
   <v>       0.09908001       0.07388713       0.38790542 </v>
   <v>       0.32574954       0.12322121       0.41060859 </v>
   <v>       0.24294563       0.08221768       0.41086907 </v>
   <v>       0.88864695       0.48670904       0.41281456 </v>
   <v>       0.86769545       0.54562962       0.41621215 </v>
   <v>       0.79847782       0.31524587       0.38576946 </v>
   <v>       0.51074428       0.40924042       0.41332188 </v>
   <v>       0.45193161       0.32919942       0.41636468 </v>
   <v>       0.68149330       0.49123430       0.38520066 </v>
   <v>       0.58776172       0.10824804       0.41269306 </v>
   <v>       0.66775660       0.12954136       0.41634196 </v>
   <v>       0.50721505       0.19852806       0.38513929 </v>
   <v>       0.82874842       0.08275877       0.56873830 </v>
   <v>       0.78792070       0.12466113       0.56893836 </v>
   <v>       0.96341515       0.07297676       0.59290919 </v>
   <v>       0.91407967       0.75383930       0.57007464 </v>
   <v>       0.87243783       0.67098580       0.56968188 </v>
   <v>       0.92362645       0.89859283       0.59366027 </v>
   <v>       0.24394423       0.16767371       0.56910611 </v>
   <v>       0.32674436       0.20845833       0.56900283 </v>
   <v>       0.09880084       0.03321351       0.59246587 </v>
   <v>       0.85868945       0.32977783       0.58039353 </v>
   <v>       0.78255903       0.48089289       0.58590309 </v>
   <v>       0.80365863       0.42226175       0.58304270 </v>
   <v>       0.66791162       0.53608621       0.58103187 </v>
   <v>       0.51644018       0.30872902       0.58616460 </v>
   <v>       0.57502151       0.38863885       0.58359867 </v>
   <v>       0.45995858       0.13747512       0.57893746 </v>
   <v>       0.68760039       0.21388068       0.58681851 </v>
   <v>       0.60771200       0.19236295       0.58377894 </v>
   <v>       0.97213581       0.02534031       0.49034750 </v>
   <v>       0.94887661       0.97844402       0.49092433 </v>
   <v>       0.97214632       0.95487539       0.49117635 </v>
   <v>       0.01902288       0.97854660       0.49090487 </v>
   <v>       0.04263332       0.02544856       0.49029923 </v>
   <v>       0.01902026       0.04867915       0.49000182 </v>
   <v>       0.80417717       0.26616918       0.48691090 </v>
   <v>       0.75736743       0.24263841       0.49095771 </v>
   <v>       0.73300456       0.19577393       0.49537715 </v>
   <v>       0.75640523       0.17238276       0.49428237 </v>
   <v>       0.80340181       0.19533964       0.49043536 </v>
   <v>       0.82715362       0.24240507       0.48724343 </v>
   <v>       0.73105141       0.54563747       0.48664037 </v>
   <v>       0.75449238       0.52230153       0.49028334 </v>
   <v>       0.80133149       0.54477380       0.49487481 </v>
   <v>       0.82481287       0.59163924       0.49424023 </v>
   <v>       0.80194444       0.61573616       0.49065721 </v>
   <v>       0.75490012       0.59242816       0.48739281 </v>
   <v>       0.45177380       0.19245600       0.48569829 </v>
   <v>       0.47516949       0.23927589       0.48984977 </v>
   <v>       0.45274369       0.26363090       0.49468717 </v>
   <v>       0.40590144       0.24021195       0.49382636 </v>
   <v>       0.38174179       0.19319871       0.48981110 </v>
   <v>       0.40499457       0.16946219       0.48625697 </v>
   <v>       0.82775151       0.17022660       0.49015984 </v>
   <v>       0.86375871       0.18208840       0.44623686 </v>
   <v>       0.88662179       0.15842830       0.44575317 </v>
   <v>       0.90037835       0.07363765       0.43449607 </v>
   <v>       0.92407328       0.05077513       0.43319055 </v>
   <v>       0.82701512       0.66526685       0.49075510 </v>
   <v>       0.81515872       0.68945076       0.44693316 </v>
   <v>       0.83867623       0.73603111       0.44677049 </v>
   <v>       0.92367368       0.83462287       0.43598877 </v>
   <v>       0.94678678       0.88122463       0.43464823 </v>
   <v>       0.33222277       0.16878480       0.48981257 </v>
   <v>       0.30789726       0.13282032       0.44583103 </v>
   <v>       0.26132582       0.10996357       0.44553371 </v>
   <v>       0.16294809       0.09696724       0.43470768 </v>
   <v>       0.11634625       0.07365985       0.43339358 </v>
   <v>       0.84664336       0.44981511       0.49653392 </v>
   <v>       0.86583031       0.48568436       0.45143505 </v>
   <v>       0.85414159       0.51899916       0.45357500 </v>
   <v>       0.84792345       0.40773778       0.48792277 </v>
   <v>       0.82580118       0.31576949       0.48357873 </v>
   <v>       0.81638706       0.33534763       0.42921929 </v>
   <v>       0.82706951       0.37986066       0.43268360 </v>
   <v>       0.54753364       0.40409962       0.49709253 </v>
   <v>       0.51172594       0.38740316       0.45191794 </v>
   <v>       0.47847947       0.34230995       0.45384165 </v>
   <v>       0.58955945       0.44754087       0.48846112 </v>
   <v>       0.68144723       0.51763418       0.48356823 </v>
   <v>       0.66162372       0.48883523       0.42903269 </v>
   <v>       0.61715572       0.45486411       0.43276963 </v>
   <v>       0.59258680       0.14978653       0.49686110 </v>
   <v>       0.60944122       0.13090730       0.45159707 </v>
   <v>       0.65450844       0.14280601       0.45384378 </v>
   <v>       0.54930173       0.14855047       0.48786176 </v>
   <v>       0.47965884       0.17080889       0.48251934 </v>
   <v>       0.50902752       0.18042156       0.42859580 </v>
   <v>       0.54274322       0.16964843       0.43252593 </v>
   <v>       0.87433305       0.12263373       0.49000478 </v>
   <v>       0.83860662       0.11066768       0.53423406 </v>
   <v>       0.81543595       0.13402141       0.53389996 </v>
   <v>       0.89899657       0.09777942       0.49012563 </v>
   <v>       0.94718521       0.05008954       0.49022131 </v>
   <v>       0.94623820       0.07307959       0.54724338 </v>
   <v>       0.92310915       0.09649730       0.54585636 </v>
   <v>       0.87430815       0.75955357       0.49127476 </v>
   <v>       0.88626586       0.73576456       0.53542459 </v>
   <v>       0.86306263       0.68917262       0.53474836 </v>
   <v>       0.89915699       0.80913875       0.49144238 </v>
   <v>       0.94726971       0.90513209       0.49142531 </v>
   <v>       0.92377500       0.88124708       0.54820946 </v>
   <v>       0.90015050       0.83463480       0.54687964 </v>
   <v>       0.23794208       0.12220450       0.49003601 </v>
   <v>       0.26188415       0.15783033       0.53441475 </v>
   <v>       0.30845462       0.18099648       0.53389224 </v>
   <v>       0.18836344       0.09775661       0.49011068 </v>
   <v>       0.09236459       0.05027715       0.49018133 </v>
   <v>       0.11618700       0.05060002       0.54695502 </v>
   <v>       0.16276791       0.07338339       0.54557893 </v>
   <v>       0.82240983       0.51652752       0.49983862 </v>
   <v>       0.80615684       0.48242745       0.54824578 </v>
   <v>       0.81829713       0.44968436       0.54699654 </v>
   <v>       0.86105985       0.38805680       0.53805283 </v>
   <v>       0.85004863       0.34325598       0.53729692 </v>
   <v>       0.48095024       0.31299623       0.50000448 </v>
   <v>       0.51494973       0.33084692       0.54855042 </v>
   <v>       0.54764706       0.37582345       0.54748324 </v>
   <v>       0.60944567       0.48020510       0.53880889 </v>
   <v>       0.65422244       0.51410473       0.53778655 </v>
   <v>       0.68364089       0.17446091       0.50037088 </v>
   <v>       0.66561568       0.19036022       0.54896611 </v>
   <v>       0.62065864       0.17798287       0.54762354 </v>
   <v>       0.51612868       0.13524053       0.53752386 </v>
   <v>       0.48241645       0.14629745       0.53621771 </v>
   <v>       0.87473047       0.07054372       0.37326823 </v>
   <v>       0.92679043       0.81198021       0.37490626 </v>
   <v>       0.18568632       0.12279297       0.37368018 </v>
   <v>       0.81105204       0.39611615       0.37637518 </v>
   <v>       0.60069754       0.42276073       0.37620737 </v>
   <v>       0.57544258       0.18595396       0.37667737 </v>
   <v>       0.92588202       0.12196274       0.60714444 </v>
   <v>       0.87403643       0.81202003       0.60777362 </v>
   <v>       0.18515754       0.06984768       0.60662035 </v>
   <v>       0.88643176       0.41521909       0.59666523 </v>
   <v>       0.58257113       0.47812723       0.59794775 </v>
   <v>       0.51729979       0.10956452       0.59619797 </v>
  </varray>
 </structure>
 <calculation>
  <scstep>
   <time name="dav">  838.59  847.06</time>
   <time name="total">  838.94  847.43</time>
   <energy>
    <i name="alphaZ">     89.56324046 </i>
    <i name="ewald">  91207.91876697 </i>
    <i name="hartreedc">-114385.18901453 </i>
    <i name="XCdc">   2363.52226615 </i>
    <i name="pawpsdc">  58067.47058441 </i>
    <i name="pawaedc"> -58196.11524481 </i>
    <i name="eentropy">     -0.00000000 </i>
    <i name="bandstr">  -8689.25147180 </i>
    <i name="atom">  28276.56973846 </i>
    <i name="e_fr_energy">  -1265.51113468 </i>
    <i name="e_wo_entrp">  -1265.51113468 </i>
    <i name="e_0_energy">  -1265.51113468 </i>
   </energy>
  </scstep>
  <scstep>
   <time name="dav">  913.98  923.28</time>
   <time name="total">  914.02  923.32</time>
   <energy>
    <i name="e_fr_energy">  -1266.10487949 </i>
    <i name="e_wo_entrp">  -1266.10487949 </i>
    <i name="e_0_energy">  -1266.10487949 </i>
   </energy>
  </scstep>
  <scstep>
   <time name="dav"> 1020.63 1030.66</time>
   <time name="total"> 1020.65 1030.68</time>
   <energy>
    <i name="e_fr_energy">  -1266.12154040 </i>
    <i name="e_wo_entrp">  -1266.12154040 </i>
    <i name="e_0_energy">  -1266.12154040 </i>
   </energy>
  </scstep>
  <scstep>
   <time name="dav">  903.24  911.97</time>
   <time name="total">  903.25  911.98</time>
   <energy>
    <i name="e_fr_energy">  -1266.12183691 </i>
    <i name="e_wo_entrp">  -1266.12183691 </i>
    <i name="e_0_energy">  -1266.12183691 </i>
   </energy>
  </scstep>
  <scstep>
   <time name="dav">  840.51  849.15</time>
   <time name="total">  840.54  849.18</time>
   <energy>
    <i name="e_fr_energy">  -1266.12185404 </i>
    <i name="e_wo_entrp">  -1266.12185404 </i>
    <i name="e_0_energy">  -1266.12185404 </i>
   </energy>
  </scstep>
  <scstep>
   <time name="dav">  673.37  680.19</time>
   <time name="total">  673.39  680.21</time>
   <energy>
    <i name="alphaZ">     89.56324046 </i>
    <i name="ewald">  91207.91876697 </i>
    <i name="hartreedc">-114385.18901453 </i>
    <i name="XCdc">   2363.52226615 </i>
    <i name="pawpsdc">  58067.47058441 </i>
    <i name="pawaedc"> -58196.11524481 </i>
    <i name="eentropy">     -0.00000000 </i>
    <i name="bandstr">  -8689.86219171 </i>
    <i name="atom">  28276.56973846 </i>
    <i name="e_fr_energy">  -1266.12185460 </i>
    <i name="e_wo_entrp">  -1266.12185460 </i>
    <i name="e_0_energy">  -1266.12185460 </i>
   </energy>
  </scstep>
  <structure>
   <crystal>
    <varray name="basis" >
     <v>      34.51741253      -0.02470030       0.00000000 </v>
     <v>     -17.26955249      29.87209556       0.00000000 </v>
     <v>       0.00000000       0.00000000      20.00000000 </v>
    </varray>
    <i name="volume">  20613.61765080 </i>
    <varray name="rec_basis" >
     <v>       0.02898288       0.01675548       0.00000000 </v>
     <v>       0.00002397       0.03348991       0.00000000 </v>
     <v>       0.00000000       0.00000000       0.05000000 </v>
    </varray>
   </crystal>
   <varray name="positions" >
    <v>       0.89523662       0.07838539       0.31956459 </v>
    <v>       0.83494481       0.05951771       0.38017349 </v>
    <v>       0.91879340       0.82443052       0.32113459 </v>
    <v>       0.93792594       0.78332873       0.38198165 </v>
    <v>       0.17298590       0.10248192       0.31981305 </v>
    <v>       0.21466305       0.16251378       0.38092406 </v>
    <v>       0.77938126       0.40234290       0.38742547 </v>
    <v>       0.83034866       0.40121580       0.32219680 </v>
    <v>       0.59383769       0.38457926       0.38699917 </v>
    <v>       0.59605859       0.43734901       0.32208168 </v>
    <v>       0.61345554       0.21731143       0.38851168 </v>
    <v>       0.56143907       0.16727624       0.32201814 </v>
    <v>       0.93743118       0.16190422       0.60039754 </v>
    <v>       0.91718945       0.10114571       0.66065766 </v>
    <v>       0.83423613       0.78337595       0.60017939 </v>
    <v>       0.89414886       0.82445531       0.66180552 </v>
    <v>       0.21327875       0.05802017       0.59950347 </v>
    <v>       0.17300664       0.07817325       0.66039102 </v>
    <v>       0.87842378       0.39586317       0.65147331 </v>
    <v>       0.91427893       0.45507517       0.58659431 </v>
    <v>       0.60220137       0.48920478       0.65256089 </v>
    <v>       0.54271838       0.46623421       0.58846010 </v>
    <v>       0.50466659       0.11668963       0.65052479 </v>
    <v>       0.53010772       0.08233558       0.58661452 </v>
    <v>       0.03729587       0.96031804       0.49113966 </v>
    <v>       0.03729814       0.08522587       0.48960545 </v>
    <v>       0.91234174       0.96012723       0.49109002 </v>
    <v>       0.73798866       0.13585639       0.49651687 </v>
    <v>       0.86366207       0.26034190       0.48530195 </v>
    <v>       0.73935420       0.26111833       0.49059449 </v>
    <v>       0.86131985       0.60975480       0.49666056 </v>
    <v>       0.73704764       0.61105411       0.48577998 </v>
    <v>       0.73595079       0.48576376       0.48959129 </v>
    <v>       0.38785780       0.25863217       0.49642905 </v>
    <v>       0.38634884       0.13294167       0.48428229 </v>
    <v>       0.51169889       0.25730699       0.48938386 </v>
    <v>       0.92428274       0.03359829       0.38757685 </v>
    <v>       0.87339761       0.20969092       0.41123749 </v>
    <v>       0.91444009       0.16800031       0.41119554 </v>
    <v>       0.96425819       0.89857289       0.38916908 </v>
    <v>       0.78768270       0.67147499       0.41173859 </v>
    <v>       0.82913843       0.75430620       0.41223890 </v>
    <v>       0.09908001       0.07388713       0.38790542 </v>
    <v>       0.32574954       0.12322121       0.41060859 </v>
    <v>       0.24294563       0.08221768       0.41086907 </v>
    <v>       0.88864695       0.48670904       0.41281456 </v>
    <v>       0.86769545       0.54562962       0.41621215 </v>
    <v>       0.79847782       0.31524587       0.38576946 </v>
    <v>       0.51074428       0.40924042       0.41332188 </v>
    <v>       0.45193161       0.32919942       0.41636468 </v>
    <v>       0.68149330       0.49123430       0.38520066 </v>
    <v>       0.58776172       0.10824804       0.41269306 </v>
    <v>       0.66775660       0.12954136       0.41634196 </v>
    <v>       0.50721505       0.19852806       0.38513929 </v>
    <v>       0.82874842       0.08275877       0.56873830 </v>
    <v>       0.78792070       0.12466113       0.56893836 </v>
    <v>       0.96341515       0.07297676       0.59290919 </v>
    <v>       0.91407967       0.75383930       0.57007464 </v>
    <v>       0.87243783       0.67098580       0.56968188 </v>
    <v>       0.92362645       0.89859283       0.59366027 </v>
    <v>       0.24394423       0.16767371       0.56910611 </v>
    <v>       0.32674436       0.20845833       0.56900283 </v>
    <v>       0.09880084       0.03321351       0.59246587 </v>
    <v>       0.85868945       0.32977783       0.58039353 </v>
    <v>       0.78255903       0.48089289       0.58590309 </v>
    <v>       0.80365863       0.42226175       0.58304270 </v>
    <v>       0.66791162       0.53608621       0.58103187 </v>
    <v>       0.51644018       0.30872902       0.58616460 </v>
    <v>       0.57502151       0.38863885       0.58359867 </v>
    <v>       0.45995858       0.13747512       0.57893746 </v>
    <v>       0.68760039       0.21388068       0.58681851 </v>
    <v>       0.60771200       0.19236295       0.58377894 </v>
    <v>       0.97213581       0.02534031       0.49034750 </v>
    <v>       0.94887661       0.97844402       0.49092433 </v>
    <v>       0.97214632       0.95487539       0.49117635 </v>
    <v>       0.01902288       0.97854660       0.49090487 </v>
    <v>       0.04263332       0.02544856       0.49029923 </v>
    <v>       0.01902026       0.04867915       0.49000182 </v>
    <v>       0.80417717       0.26616918       0.48691090 </v>
    <v>       0.75736743       0.24263841       0.49095771 </v>
    <v>       0.73300456       0.19577393       0.49537715 </v>
    <v>       0.75640523       0.17238276       0.49428237 </v>
    <v>       0.80340181       0.19533964       0.49043536 </v>
    <v>       0.82715362       0.24240507       0.48724343 </v>
    <v>       0.73105141       0.54563747       0.48664037 </v>
    <v>       0.75449238       0.52230153       0.49028334 </v>
    <v>       0.80133149       0.54477380       0.49487481 </v>
    <v>       0.82481287       0.59163924       0.49424023 </v>
    <v>       0.80194444       0.61573616       0.49065721 </v>
    <v>       0.75490012       0.59242816       0.48739281 </v>
    <v>       0.45177380       0.19245600       0.48569829 </v>
    <v>       0.47516949       0.23927589       0.48984977 </v>
    <v>       0.45274369       0.26363090       0.49468717 </v>
    <v>       0.40590144       0.24021195       0.49382636 </v>
    <v>       0.38174179       0.19319871       0.48981110 </v>
    <v>       0.40499457       0.16946219       0.48625697 </v>
    <v>       0.82775151       0.17022660       0.49015984 </v>
    <v>       0.86375871       0.18208840       0.44623686 </v>
    <v>       0.88662179       0.15842830       0.44575317 </v>
    <v>       0.90037835       0.07363765       0.43449607 </v>
    <v>       0.92407328       0.05077513       0.43319055 </v>
    <v>       0.82701512       0.66526685       0.49075510 </v>
    <v>       0.81515872       0.68945076       0.44693316 </v>
    <v>       0.83867623       0.73603111       0.44677049 </v>
    <v>       0.92367368       0.83462287       0.43598877 </v>
    <v>       0.94678678       0.88122463       0.43464823 </v>
    <v>       0.33222277       0.16878480       0.48981257 </v>
    <v>       0.30789726       0.13282032       0.44583103 </v>
    <v>       0.26132582       0.10996357       0.44553371 </v>
    <v>       0.16294809       0.09696724       0.43470768 </v>
    <v>       0.11634625       0.07365985       0.43339358 </v>
    <v>       0.84664336       0.44981511       0.49653392 </v>
    <v>       0.86583031       0.48568436       0.45143505 </v>
    <v>       0.85414159       0.51899916       0.45357500 </v>
    <v>       0.84792345       0.40773778       0.48792277 </v>
    <v>       0.82580118       0.31576949       0.48357873 </v>
    <v>       0.81638706       0.33534763       0.42921929 </v>
    <v>       0.82706951       0.37986066       0.43268360 </v>
    <v>       0.54753364       0.40409962       0.49709253 </v>
    <v>       0.51172594       0.38740316       0.45191794 </v>
    <v>       0.47847947       0.34230995       0.45384165 </v>
    <v>       0.58955945       0.44754087       0.48846112 </v>
    <v>       0.68144723       0.51763418       0.48356823 </v>
    <v>       0.66162372       0.48883523       0.42903269 </v>
    <v>       0.61715572       0.45486411       0.43276963 </v>
    <v>       0.59258680       0.14978653       0.49686110 </v>
    <v>       0.60944122       0.13090730       0.45159707 </v>
    <v>       0.65450844       0.14280601       0.45384378 </v>
    <v>       0.54930173       0.14855047       0.48786176 </v>
    <v>       0.47965884       0.17080889       0.48251934 </v>
    <v>       0.50902752       0.18042156       0.42859580 </v>
    <v>       0.54274322       0.16964843       0.43252593 </v>
    <v>       0.87433305       0.12263373       0.49000478 </v>
    <v>       0.83860662       0.11066768       0.53423406 </v>
    <v>       0.81543595       0.13402141       0.53389996 </v>
    <v>       0.89899657       0.09777942       0.49012563 </v>
    <v>       0.94718521       0.05008954       0.49022131 </v>
    <v>       0.94623820       0.07307959       0.54724338 </v>
    <v>       0.92310915       0.09649730       0.54585636 </v>
    <v>       0.87430815       0.75955357       0.49127476 </v>
    <v>       0.88626586       0.73576456       0.53542459 </v>
    <v>       0.86306263       0.68917262       0.53474836 </v>
    <v>       0.89915699       0.80913875       0.49144238 </v>
    <v>       0.94726971       0.90513209       0.49142531 </v>
    <v>       0.92377500       0.88124708       0.54820946 </v>
    <v>       0.90015050       0.83463480       0.54687964 </v>
    <v>       0.23794208       0.12220450       0.49003601 </v>
    <v>       0.26188415       0.15783033       0.53441475 </v>
    <v>       0.30845462       0.18099648       0.53389224 </v>
    <v>       0.18836344       0.09775661       0.49011068 </v>
    <v>       0.09236459       0.05027715       0.49018133 </v>
    <v>       0.11618700       0.05060002       0.54695502 </v>
    <v>       0.16276791       0.07338339       0.54557893 </v>
    <v>       0.82240983       0.51652752       0.49983862 </v>
    <v>       0.80615684       0.48242745       0.54824578 </v>
    <v>       0.81829713       0.44968436       0.54699654 </v>
    <v>       0.86105985       0.38805680       0.53805283 </v>
    <v>       0.85004863       0.34325598       0.53729692 </v>
    <v>       0.48095024       0.31299623       0.50000448 </v>
    <v>       0.51494973       0.33084692       0.54855042 </v>
    <v>       0.54764706       0.37582345       0.54748324 </v>
    <v>       0.60944567       0.48020510       0.53880889 </v>
    <v>       0.65422244       0.51410473       0.53778655 </v>
    <v>       0.68364089       0.17446091       0.50037088 </v>
    <v>       0.66561568       0.19036022       0.54896611 </v>
    <v>       0.62065864       0.17798287       0.54762354 </v>
    <v>       0.51612868       0.13524053       0.53752386 </v>
    <v>       0.48241645       0.14629745       0.53621771 </v>
    <v>       0.87473047       0.07054372       0.37326823 </v>
    <v>       0.92679043       0.81198021       0.37490626 </v>
    <v>       0.18568632       0.12279297       0.37368018 </v>
    <v>       0.81105204       0.39611615       0.37637518 </v>
    <v>       0.60069754       0.42276073       0.37620737 </v>
    <v>       0.57544258       0.18595396       0.37667737 </v>
    <v>       0.92588202       0.12196274       0.60714444 </v>
    <v>       0.87403643       0.81202003       0.60777362 </v>
    <v>       0.18515754       0.06984768       0.60662035 </v>
    <v>       0.88643176       0.41521909       0.59666523 </v>
    <v>       0.58257113       0.47812723       0.59794775 </v>
    <v>       0.51729979       0.10956452       0.59619797 </v>
   </varray>
  </structure>
  <varray name="forces" >
   <v>      -0.00268556       0.00367719      -0.00085546 </v>
   <v>       0.00171480      -0.00003661       0.00096186 </v>
   <v>       0.00093723      -0.00208679      -0.00091853 </v>
   <v>      -0.00089489       0.00073485      -0.00060995 </v>
   <v>      -0.00287476       0.00218202      -0.00277802 </v>
   <v>      -0.00033657      -0.00802490       0.00125411 </v>
   <v>       0.00257818      -0.00096530       0.00171367 </v>
   <v>       0.00089856       0.00158250       0.00111348 </v>
   <v>       0.00133165       0.00150520      -0.00220527 </v>
   <v>       0.00401147      -0.00006427       0.00033849 </v>
   <v>       0.00155387      -0.00134170       0.00116452 </v>
   <v>       0.00012599      -0.00037403       0.00154468 </v>
   <v>       0.00042981      -0.00058372      -0.00066038 </v>
   <v>      -0.00126178       0.00204059      -0.00030337 </v>
   <v>       0.00229440       0.00157389      -0.00010193 </v>
   <v>      -0.00076993      -0.00031723      -0.00018427 </v>
   <v>      -0.00069829      -0.00061526      -0.00083875 </v>
   <v>       0.00146211      -0.00051214      -0.00135717 </v>
   <v>      -0.00053361      -0.00269337      -0.00204982 </v>
   <v>       0.00224766      -0.00054264       0.00261898 </v>
   <v>      -0.00415980       0.00005349       0.00252817 </v>
   <v>       0.00184654       0.00082806      -0.00140193 </v>
   <v>       0.00111895       0.00001420      -0.00251275 </v>
   <v>       0.00315538      -0.00214763      -0.00073328 </v>
   <v>       0.00001420       0.00039678      -0.00131976 </v>
   <v>      -0.00126543       0.00063279      -0.00145533 </v>
   <v>       0.00000548      -0.00015302      -0.00007841 </v>
   <v>       0.00032112       0.00097950       0.00098396 </v>
   <v>      -0.00118655       0.00020065      -0.00038066 </v>
   <v>       0.00007352       0.00129106       0.00003899 </v>
   <v>      -0.00082019      -0.00062227       0.00037637 </v>
   <v>       0.00007773       0.00042906      -0.00006241 </v>
   <v>      -0.00045312      -0.00028928       0.00068522 </v>
   <v>       0.00022066      -0.00035540       0.00017081 </v>
   <v>       0.00051250       0.00033598      -0.00011358 </v>
   <v>      -0.00019825      -0.00011815       0.00003602 </v>
   <v>      -0.00230777       0.00126278       0.00128349 </v>
   <v>       0.00056596       0.00015891       0.00009734 </v>
   <v>      -0.00041118      -0.00028320       0.00053525 </v>
   <v>       0.00090330      -0.00005617       0.00027658 </v>
   <v>       0.00026795      -0.00003753       0.00016673 </v>
   <v>       0.00100721      -0.00020077       0.00056090 </v>
   <v>      -0.00007117       0.00184558      -0.00080403 </v>
   <v>      -0.00084369       0.00014629       0.00016700 </v>
   <v>      -0.00043951       0.00028108      -0.00004921 </v>
   <v>      -0.00084665       0.00023294      -0.00149151 </v>
   <v>      -0.00082205       0.00078636      -0.00122925 </v>
   <v>      -0.00073691       0.00057816      -0.00261772 </v>
   <v>      -0.00019224      -0.00030029       0.00002304 </v>
   <v>       0.00056054      -0.00056790      -0.00048831 </v>
   <v>      -0.00019770       0.00095262       0.00197349 </v>
   <v>       0.00085511       0.00039075      -0.00017620 </v>
   <v>      -0.00008290       0.00067685       0.00012195 </v>
   <v>       0.00073084       0.00009244      -0.00002093 </v>
   <v>       0.00007252       0.00074630       0.00083693 </v>
   <v>       0.00092531       0.00069504       0.00126067 </v>
   <v>      -0.00086692       0.00023420      -0.00183616 </v>
   <v>      -0.00080897       0.00013769       0.00025489 </v>
   <v>      -0.00038001      -0.00022302       0.00080172 </v>
   <v>       0.00002772       0.00055726       0.00041244 </v>
   <v>       0.00084900      -0.00085532       0.00088060 </v>
   <v>       0.00023960      -0.00135101       0.00086151 </v>
   <v>      -0.00070673      -0.00068158      -0.00317961 </v>
   <v>       0.00056759      -0.00002046      -0.00084773 </v>
   <v>       0.00156843       0.00108284       0.00131651 </v>
   <v>       0.00199780       0.00166435      -0.00040066 </v>
   <v>      -0.00150994      -0.00163713      -0.00087124 </v>
   <v>       0.00065435       0.00037440      -0.00062522 </v>
   <v>       0.00018892       0.00048912      -0.00047993 </v>
   <v>       0.00121764      -0.00071244      -0.00051410 </v>
   <v>      -0.00070245      -0.00078226       0.00021807 </v>
   <v>      -0.00004776      -0.00083692       0.00118008 </v>
   <v>       0.00347990      -0.00145840      -0.00040627 </v>
   <v>      -0.00052255      -0.00052222      -0.00086758 </v>
   <v>      -0.00087674       0.00152759      -0.00098310 </v>
   <v>      -0.00114357       0.00021206      -0.00125113 </v>
   <v>      -0.00166782       0.00004110      -0.00087969 </v>
   <v>       0.00087902       0.00105817      -0.00144101 </v>
   <v>       0.00104289       0.00013332      -0.00185622 </v>
   <v>       0.00091522      -0.00103699       0.00067082 </v>
   <v>       0.00122156       0.00023865       0.00034693 </v>
   <v>      -0.00078014       0.00055413       0.00068019 </v>
   <v>      -0.00052285       0.00178755       0.00071102 </v>
   <v>       0.00102820       0.00031901       0.00019902 </v>
   <v>      -0.00077713      -0.00003505       0.00014601 </v>
[...]
       <r>   -16.2852     3.9534   172.4660 </r>
       <r>   -16.1673    33.9370   177.9999 </r>
       <r>   -16.0495     0.0000   178.0000 </r>
       <r>   -15.9316    16.9689   180.0000 </r>
       <r>   -15.8138     0.0000   180.0000 </r>
       <r>   -15.6959     0.0000   180.0000 </r>
       <r>   -15.5780    40.8541   184.8152 </r>
       <r>   -15.4602    10.0957   186.9232 </r>
       <r>   -15.3423     5.9389   188.0000 </r>
       <r>   -15.2244    33.9378   192.0000 </r>
       <r>   -15.1066    41.5376   197.8291 </r>
       <r>   -14.9887    40.6273   203.9884 </r>
       <r>   -14.8709     0.0000   204.0000 </r>
       <r>   -14.7530     3.1259   204.3684 </r>
       <r>   -14.6351    23.5992   212.7815 </r>
       <r>   -14.5173     0.0000   214.0000 </r>
       <r>   -14.3994    50.9067   220.0000 </r>
       <r>   -14.2815     0.2668   220.0314 </r>
       <r>   -14.1637    31.8363   229.7523 </r>
       <r>   -14.0458    10.2882   233.2126 </r>
       <r>   -13.9280     0.0000   234.0000 </r>
       <r>   -13.8101    18.9379   236.2321 </r>
       <r>   -13.6922    33.9378   244.0000 </r>
       <r>   -13.5744    50.9067   250.0000 </r>
       <r>   -13.4565    50.9067   256.0000 </r>
       <r>   -13.3386    16.4604   257.9401 </r>
       <r>   -13.2208    50.9044   263.9997 </r>
       <r>   -13.1029    41.1850   268.8542 </r>
       <r>   -12.9850    72.6340   279.6942 </r>
       <r>   -12.8672    38.4889   286.0031 </r>
       <r>   -12.7493    93.0221   298.9638 </r>
       <r>   -12.6315    50.0377   305.8976 </r>
       <r>   -12.5136    84.8445   318.0000 </r>
       <r>   -12.3957     0.0793   318.0093 </r>
       <r>   -12.2779    50.9067   326.0000 </r>
       <r>   -12.1600    16.9689   328.0000 </r>
       <r>   -12.0421     0.0087   328.0010 </r>
       <r>   -11.9243    75.7367   340.9265 </r>
       <r>   -11.8064    37.6988   348.4433 </r>
       <r>   -11.6886     5.5509   350.6542 </r>
       <r>   -11.5707    54.7977   357.7919 </r>
       <r>   -11.4528    11.6712   359.3756 </r>
       <r>   -11.3350    18.7173   364.2061 </r>
       <r>   -11.2171     3.2840   368.3871 </r>
       <r>   -11.0992    50.0209   375.8956 </r>
       <r>   -10.9814     0.0000   380.0000 </r>
       <r>   -10.8635    16.9109   381.9932 </r>
       <r>   -10.7457     0.0031   382.0004 </r>
       <r>   -10.6278     0.0048   386.0006 </r>
       <r>   -10.5099    33.8707   391.9921 </r>
       <r>   -10.3921    40.9688   396.8287 </r>
       <r>   -10.2742    70.1805   408.2717 </r>
       <r>   -10.1563    50.9208   420.0017 </r>
       <r>   -10.0385    46.0428   427.8601 </r>
       <r>    -9.9206    50.3069   433.9293 </r>
       <r>    -9.8028     0.0111   434.0013 </r>
       <r>    -9.6849     0.2177   440.0257 </r>
       <r>    -9.5670     0.0000   442.0000 </r>
       <r>    -9.4492     0.0000   442.0000 </r>
       <r>    -9.3313    32.4983   447.9970 </r>
       <r>    -9.2134    84.8412   457.9996 </r>
       <r>    -9.0956    16.9608   459.9990 </r>
       <r>    -8.9777    33.2291   467.9165 </r>
       <r>    -8.8599    33.9378   474.0000 </r>
       <r>    -8.7420    16.9689   476.0000 </r>
       <r>    -8.6241     0.6099   476.0719 </r>
       <r>    -8.5063    33.9378   482.0000 </r>
       <r>    -8.3884    45.2740   487.3361 </r>
       <r>    -8.2705    20.1393   490.3737 </r>
       <r>    -8.1527    50.8488   499.9932 </r>
       <r>    -8.0348    49.5429   505.8393 </r>
       <r>    -7.9170    82.2961   515.6996 </r>
       <r>    -7.7991    43.7244   523.1535 </r>
       <r>    -7.6812    84.8021   533.9950 </r>
       <r>    -7.5634    62.8422   541.4067 </r>
       <r>    -7.4455    48.2833   547.6908 </r>
       <r>    -7.3276    17.0293   554.0071 </r>
       <r>    -7.2098    63.1356   565.4413 </r>
       <r>    -7.0919     3.7601   566.4432 </r>
       <r>    -6.9741    33.9378   576.0000 </r>
       <r>    -6.8562    50.9065   582.0000 </r>
       <r>    -6.7383    43.1782   587.0891 </r>
       <r>    -6.6205   101.8134   600.0000 </r>
       <r>    -6.5026    46.6263   605.4955 </r>
       <r>    -6.3847    92.9558   616.9560 </r>
       <r>    -6.2669    16.9689   624.0000 </r>
       <r>    -6.1490     0.0000   624.0000 </r>
       <r>    -6.0312     0.0000   624.0000 </r>
       <r>    -5.9133    16.9983   626.0035 </r>
       <r>    -5.7954     0.0022   630.0003 </r>
       <r>    -5.6776    16.9689   636.0000 </r>
       <r>    -5.5597     0.0000   636.0000 </r>
       <r>    -5.4418     0.0000   636.0000 </r>
       <r>    -5.3240     0.0000   636.0000 </r>
       <r>    -5.2061     0.0000   636.0000 </r>
       <r>    -5.0883     0.0000   636.0000 </r>
       <r>    -4.9704     0.0000   636.0000 </r>
       <r>    -4.8525     0.0000   636.0000 </r>
       <r>    -4.7347     0.0000   636.0000 </r>
       <r>    -4.6168     0.0000   636.0000 </r>
       <r>    -4.4989     0.0000   636.0000 </r>
       <r>    -4.3811     0.0000   636.0000 </r>
       <r>    -4.2632     0.0000   636.0000 </r>
       <r>    -4.1454     0.0000   636.0000 </r>
       <r>    -4.0275     0.0000   636.0000 </r>
       <r>    -3.9096     0.0000   636.0000 </r>
       <r>    -3.7918     0.0000   636.0000 </r>
       <r>    -3.6739     0.0000   636.0000 </r>
       <r>    -3.5560    50.9067   642.0000 </r>
       <r>    -3.4382    50.9067   648.0000 </r>
       <r>    -3.3203    50.9067   654.0000 </r>
       <r>    -3.2024    50.9063   659.9999 </r>
       <r>    -3.0846     0.0000   660.0000 </r>
       <r>    -2.9667     0.0000   660.0000 </r>
       <r>    -2.8489     0.0000   660.0000 </r>
       <r>    -2.7310     0.0000   660.0000 </r>
       <r>    -2.6131     0.0000   660.0000 </r>
       <r>    -2.4953    31.1576   663.6723 </r>
       <r>    -2.3774     0.0000   664.0000 </r>
       <r>    -2.2595    32.2887   667.8056 </r>
       <r>    -2.1417    33.9434   672.0007 </r>
       <r>    -2.0238     0.0122   676.0014 </r>
       <r>    -1.9060    12.7522   679.5030 </r>
       <r>    -1.7881    17.1184   684.0176 </r>
       <r>    -1.6702     9.0811   689.0703 </r>
       <r>    -1.5524     9.0454   695.0661 </r>
       <r>    -1.4345     2.2924   698.2702 </r>
       <r>    -1.3166    16.9004   705.9919 </r>
       <r>    -1.1988    16.9689   712.0000 </r>
       <r>    -1.0809     0.0000   712.0000 </r>
       <r>    -0.9631    16.9690   714.0000 </r>
       <r>    -0.8452     0.0000   718.0000 </r>
       <r>    -0.7273     0.0000   718.0000 </r>
       <r>    -0.6095    33.9378   726.0000 </r>
       <r>    -0.4916     0.0000   726.0000 </r>
       <r>    -0.3737    16.9688   728.0000 </r>
       <r>    -0.2559    49.0843   733.7852 </r>
       <r>    -0.1380    50.8973   739.9989 </r>
       <r>    -0.0202    16.6131   741.9581 </r>
       <r>     0.0977    40.2543   746.7445 </r>
       <r>     0.2156    68.9554   757.0606 </r>
       <r>     0.3334    43.7614   764.5245 </r>
       <r>     0.4513    47.2805   771.6393 </r>
       <r>     0.5692    47.1322   780.5885 </r>
       <r>     0.6870    62.8117   790.4032 </r>
       <r>     0.8049    55.6005   799.5199 </r>
       <r>     0.9227    69.4012   812.5131 </r>
       <r>     1.0406    91.0785   828.4014 </r>
       <r>     1.1585     2.5453   832.0000 </r>
       <r>     1.2763     0.0000   832.0000 </r>
       <r>     1.3942     0.0000   832.0000 </r>
       <r>     1.5121     0.0000   832.0000 </r>
       <r>     1.6299     0.0000   832.0000 </r>
       <r>     1.7478     0.0000   832.0000 </r>
       <r>     1.8656     0.0000   832.0000 </r>
       <r>     1.9835     0.0000   832.0000 </r>
       <r>     2.1014     0.0000   832.0000 </r>
       <r>     2.2192     0.0000   832.0000 </r>
       <r>     2.3371     0.0000   832.0000 </r>
       <r>     2.4550     0.0000   832.0000 </r>
       <r>     2.5728     0.0000   832.0000 </r>
       <r>     2.6907     0.0000   832.0000 </r>
      </set>
     </set>
    </array>
   </total>
  </dos>
 </calculation>
 <structure name="finalpos" >
  <crystal>
   <varray name="basis" >
    <v>      34.51741253      -0.02470030       0.00000000 </v>
    <v>     -17.26955249      29.87209556       0.00000000 </v>
    <v>       0.00000000       0.00000000      20.00000000 </v>
   </varray>
   <i name="volume">  20613.61765080 </i>
   <varray name="rec_basis" >
    <v>       0.02898288       0.01675548       0.00000000 </v>
    <v>       0.00002397       0.03348991       0.00000000 </v>
    <v>       0.00000000       0.00000000       0.05000000 </v>
   </varray>
  </crystal>
  <varray name="positions" >
   <v>       0.89523662       0.07838539       0.31956459 </v>
   <v>       0.83494481       0.05951771       0.38017349 </v>
   <v>       0.91879340       0.82443052       0.32113459 </v>
   <v>       0.93792594       0.78332873       0.38198165 </v>
   <v>       0.17298590       0.10248192       0.31981305 </v>
   <v>       0.21466305       0.16251378       0.38092406 </v>
   <v>       0.77938126       0.40234290       0.38742547 </v>
   <v>       0.83034866       0.40121580       0.32219680 </v>
   <v>       0.59383769       0.38457926       0.38699917 </v>
   <v>       0.59605859       0.43734901       0.32208168 </v>
   <v>       0.61345554       0.21731143       0.38851168 </v>
   <v>       0.56143907       0.16727624       0.32201814 </v>
   <v>       0.93743118       0.16190422       0.60039754 </v>
   <v>       0.91718945       0.10114571       0.66065766 </v>
   <v>       0.83423613       0.78337595       0.60017939 </v>
   <v>       0.89414886       0.82445531       0.66180552 </v>
   <v>       0.21327875       0.05802017       0.59950347 </v>
   <v>       0.17300664       0.07817325       0.66039102 </v>
   <v>       0.87842378       0.39586317       0.65147331 </v>
   <v>       0.91427893       0.45507517       0.58659431 </v>
   <v>       0.60220137       0.48920478       0.65256089 </v>
   <v>       0.54271838       0.46623421       0.58846010 </v>
   <v>       0.50466659       0.11668963       0.65052479 </v>
   <v>       0.53010772       0.08233558       0.58661452 </v>
   <v>       0.03729587       0.96031804       0.49113966 </v>
   <v>       0.03729814       0.08522587       0.48960545 </v>
   <v>       0.91234174       0.96012723       0.49109002 </v>
   <v>       0.73798866       0.13585639       0.49651687 </v>
   <v>       0.86366207       0.26034190       0.48530195 </v>
   <v>       0.73935420       0.26111833       0.49059449 </v>
   <v>       0.86131985       0.60975480       0.49666056 </v>
   <v>       0.73704764       0.61105411       0.48577998 </v>
   <v>       0.73595079       0.48576376       0.48959129 </v>
   <v>       0.38785780       0.25863217       0.49642905 </v>
   <v>       0.38634884       0.13294167       0.48428229 </v>
   <v>       0.51169889       0.25730699       0.48938386 </v>
   <v>       0.92428274       0.03359829       0.38757685 </v>
   <v>       0.87339761       0.20969092       0.41123749 </v>
   <v>       0.91444009       0.16800031       0.41119554 </v>
   <v>       0.96425819       0.89857289       0.38916908 </v>
   <v>       0.78768270       0.67147499       0.41173859 </v>
   <v>       0.82913843       0.75430620       0.41223890 </v>
   <v>       0.09908001       0.07388713       0.38790542 </v>
   <v>       0.32574954       0.12322121       0.41060859 </v>
   <v>       0.24294563       0.08221768       0.41086907 </v>
   <v>       0.88864695       0.48670904       0.41281456 </v>
   <v>       0.86769545       0.54562962       0.41621215 </v>
   <v>       0.79847782       0.31524587       0.38576946 </v>
   <v>       0.51074428       0.40924042       0.41332188 </v>
   <v>       0.45193161       0.32919942       0.41636468 </v>
   <v>       0.68149330       0.49123430       0.38520066 </v>
   <v>       0.58776172       0.10824804       0.41269306 </v>
   <v>       0.66775660       0.12954136       0.41634196 </v>
   <v>       0.50721505       0.19852806       0.38513929 </v>
   <v>       0.82874842       0.08275877       0.56873830 </v>
   <v>       0.78792070       0.12466113       0.56893836 </v>
   <v>       0.96341515       0.07297676       0.59290919 </v>
   <v>       0.91407967       0.75383930       0.57007464 </v>
   <v>       0.87243783       0.67098580       0.56968188 </v>
   <v>       0.92362645       0.89859283       0.59366027 </v>
   <v>       0.24394423       0.16767371       0.56910611 </v>
   <v>       0.32674436       0.20845833       0.56900283 </v>
   <v>       0.09880084       0.03321351       0.59246587 </v>
   <v>       0.85868945       0.32977783       0.58039353 </v>
   <v>       0.78255903       0.48089289       0.58590309 </v>
   <v>       0.80365863       0.42226175       0.58304270 </v>
   <v>       0.66791162       0.53608621       0.58103187 </v>
   <v>       0.51644018       0.30872902       0.58616460 </v>
   <v>       0.57502151       0.38863885       0.58359867 </v>
   <v>       0.45995858       0.13747512       0.57893746 </v>
   <v>       0.68760039       0.21388068       0.58681851 </v>
   <v>       0.60771200       0.19236295       0.58377894 </v>
   <v>       0.97213581       0.02534031       0.49034750 </v>
   <v>       0.94887661       0.97844402       0.49092433 </v>
   <v>       0.97214632       0.95487539       0.49117635 </v>
   <v>       0.01902288       0.97854660       0.49090487 </v>
   <v>       0.04263332       0.02544856       0.49029923 </v>
   <v>       0.01902026       0.04867915       0.49000182 </v>
   <v>       0.80417717       0.26616918       0.48691090 </v>
   <v>       0.75736743       0.24263841       0.49095771 </v>
   <v>       0.73300456       0.19577393       0.49537715 </v>
   <v>       0.75640523       0.17238276       0.49428237 </v>
   <v>       0.80340181       0.19533964       0.49043536 </v>
   <v>       0.82715362       0.24240507       0.48724343 </v>
   <v>       0.73105141       0.54563747       0.48664037 </v>
   <v>       0.75449238       0.52230153       0.49028334 </v>
   <v>       0.80133149       0.54477380       0.49487481 </v>
   <v>       0.82481287       0.59163924       0.49424023 </v>
   <v>       0.80194444       0.61573616       0.49065721 </v>
   <v>       0.75490012       0.59242816       0.48739281 </v>
   <v>       0.45177380       0.19245600       0.48569829 </v>
   <v>       0.47516949       0.23927589       0.48984977 </v>
   <v>       0.45274369       0.26363090       0.49468717 </v>
   <v>       0.40590144       0.24021195       0.49382636 </v>
   <v>       0.38174179       0.19319871       0.48981110 </v>
   <v>       0.40499457       0.16946219       0.48625697 </v>
   <v>       0.82775151       0.17022660       0.49015984 </v>
   <v>       0.86375871       0.18208840       0.44623686 </v>
   <v>       0.88662179       0.15842830       0.44575317 </v>
   <v>       0.90037835       0.07363765       0.43449607 </v>
   <v>       0.92407328       0.05077513       0.43319055 </v>
   <v>       0.82701512       0.66526685       0.49075510 </v>
   <v>       0.81515872       0.68945076       0.44693316 </v>
   <v>       0.83867623       0.73603111       0.44677049 </v>
   <v>       0.92367368       0.83462287       0.43598877 </v>
   <v>       0.94678678       0.88122463       0.43464823 </v>
   <v>       0.33222277       0.16878480       0.48981257 </v>
   <v>       0.30789726       0.13282032       0.44583103 </v>
   <v>       0.26132582       0.10996357       0.44553371 </v>
   <v>       0.16294809       0.09696724       0.43470768 </v>
   <v>       0.11634625       0.07365985       0.43339358 </v>
   <v>       0.84664336       0.44981511       0.49653392 </v>
   <v>       0.86583031       0.48568436       0.45143505 </v>
   <v>       0.85414159       0.51899916       0.45357500 </v>
   <v>       0.84792345       0.40773778       0.48792277 </v>
   <v>       0.82580118       0.31576949       0.48357873 </v>
   <v>       0.81638706       0.33534763       0.42921929 </v>
   <v>       0.82706951       0.37986066       0.43268360 </v>
   <v>       0.54753364       0.40409962       0.49709253 </v>
   <v>       0.51172594       0.38740316       0.45191794 </v>
   <v>       0.47847947       0.34230995       0.45384165 </v>
   <v>       0.58955945       0.44754087       0.48846112 </v>
   <v>       0.68144723       0.51763418       0.48356823 </v>
   <v>       0.66162372       0.48883523       0.42903269 </v>
   <v>       0.61715572       0.45486411       0.43276963 </v>
   <v>       0.59258680       0.14978653       0.49686110 </v>
   <v>       0.60944122       0.13090730       0.45159707 </v>
   <v>       0.65450844       0.14280601       0.45384378 </v>
   <v>       0.54930173       0.14855047       0.48786176 </v>
   <v>       0.47965884       0.17080889       0.48251934 </v>
   <v>       0.50902752       0.18042156       0.42859580 </v>
   <v>       0.54274322       0.16964843       0.43252593 </v>
   <v>       0.87433305       0.12263373       0.49000478 </v>
   <v>       0.83860662       0.11066768       0.53423406 </v>
   <v>       0.81543595       0.13402141       0.53389996 </v>
   <v>       0.89899657       0.09777942       0.49012563 </v>
   <v>       0.94718521       0.05008954       0.49022131 </v>
   <v>       0.94623820       0.07307959       0.54724338 </v>
   <v>       0.92310915       0.09649730       0.54585636 </v>
   <v>       0.87430815       0.75955357       0.49127476 </v>
   <v>       0.88626586       0.73576456       0.53542459 </v>
   <v>       0.86306263       0.68917262       0.53474836 </v>
   <v>       0.89915699       0.80913875       0.49144238 </v>
   <v>       0.94726971       0.90513209       0.49142531 </v>
   <v>       0.92377500       0.88124708       0.54820946 </v>
   <v>       0.90015050       0.83463480       0.54687964 </v>
   <v>       0.23794208       0.12220450       0.49003601 </v>
   <v>       0.26188415       0.15783033       0.53441475 </v>
   <v>       0.30845462       0.18099648       0.53389224 </v>
   <v>       0.18836344       0.09775661       0.49011068 </v>
   <v>       0.09236459       0.05027715       0.49018133 </v>
   <v>       0.11618700       0.05060002       0.54695502 </v>
   <v>       0.16276791       0.07338339       0.54557893 </v>
   <v>       0.82240983       0.51652752       0.49983862 </v>
   <v>       0.80615684       0.48242745       0.54824578 </v>
   <v>       0.81829713       0.44968436       0.54699654 </v>
   <v>       0.86105985       0.38805680       0.53805283 </v>
   <v>       0.85004863       0.34325598       0.53729692 </v>
   <v>       0.48095024       0.31299623       0.50000448 </v>
   <v>       0.51494973       0.33084692       0.54855042 </v>
   <v>       0.54764706       0.37582345       0.54748324 </v>
   <v>       0.60944567       0.48020510       0.53880889 </v>
   <v>       0.65422244       0.51410473       0.53778655 </v>
   <v>       0.68364089       0.17446091       0.50037088 </v>
   <v>       0.66561568       0.19036022       0.54896611 </v>
   <v>       0.62065864       0.17798287       0.54762354 </v>
   <v>       0.51612868       0.13524053       0.53752386 </v>
   <v>       0.48241645       0.14629745       0.53621771 </v>
   <v>       0.87473047       0.07054372       0.37326823 </v>
   <v>       0.92679043       0.81198021       0.37490626 </v>
   <v>       0.18568632       0.12279297       0.37368018 </v>
   <v>       0.81105204       0.39611615       0.37637518 </v>
   <v>       0.60069754       0.42276073       0.37620737 </v>
   <v>       0.57544258       0.18595396       0.37667737 </v>
   <v>       0.92588202       0.12196274       0.60714444 </v>
   <v>       0.87403643       0.81202003       0.60777362 </v>
   <v>       0.18515754       0.06984768       0.60662035 </v>
   <v>       0.88643176       0.41521909       0.59666523 </v>
   <v>       0.58257113       0.47812723       0.59794775 </v>
   <v>       0.51729979       0.10956452       0.59619797 </v>
  </varray>
 </structure>
</modeling>
