<?xml version="1.0" encoding="ISO-8859-1"?>
<modeling>
 <generator>
  <i name="program" type="string">vasp </i>
  <i name="version" type="string">5.4.4.18Apr17-6-g9f103f2a35  </i>
  <i name="subversion" type="string">(build Jun 07 2020 16:50:00) complex            parallel </i>
  <i name="platform" type="string">LinuxIFC </i>
  <i name="date" type="string">2023 02 14 </i>
  <i name="time" type="string">03:20:37 </i>
 </generator>
 <incar>
  <i type="string" name="SYSTEM">Simulation for cell shape cell volume r</i>
  <i type="int" name="ISTART">     1</i>
  <i type="string" name="PREC">high</i>
  <i type="string" name="ALGO">48</i>
  <i type="int" name="ICHARG">    11</i>
  <i type="int" name="NELM">   200</i>
  <i type="int" name="IBRION">    -1</i>
  <i name="EDIFF">      0.00001000</i>
  <i name="EDIFFG">     -0.01000000</i>
  <i type="int" name="NSW">     0</i>
  <i type="int" name="ISIF">     2</i>
  <i name="ENCUT">    500.00000000</i>
  <i name="POTIM">      0.30000000</i>
  <i type="string" name="LREAL">A</i>
  <i type="int" name="ISMEAR">     0</i>
  <i name="SIGMA">      0.01000000</i>
  <i type="int" name="NWRITE">     0</i>
  <i type="logical" name="LWAVE"> F  </i>
  <i type="logical" name="LCHARG"> F  </i>
  <v type="int" name="KPOINT_BSE">    -1     0     0     0</v>
  <i type="int" name="NELM">   200</i>
  <i type="string" name="GGA">PE</i>
 </incar>
 <structure name="primitive_cell" >
  <crystal>
   <varray name="basis" >
    <v>      14.49104346       0.00000000       0.00000000 </v>
    <v>      -7.24552173      12.54961177       0.00000000 </v>
    <v>       0.00000000       0.00000000      20.00000000 </v>
   </varray>
   <i name="volume">   3637.13939117 </i>
   <varray name="rec_basis" >
    <v>       0.06900814       0.03984187       0.00000000 </v>
    <v>       0.00000000       0.07968374       0.00000000 </v>
    <v>       0.00000000       0.00000000       0.05000000 </v>
   </varray>
  </crystal>
  <varray name="positions" >
   <v>       0.44325464       0.22162732      -0.48722232 </v>
   <v>       0.38994194       0.19497097       0.45106518 </v>
   <v>       0.38861826       0.19430913      -0.42573522 </v>
   <v>      -0.43779171       0.28110415      -0.48697698 </v>
   <v>       0.27654431       0.13827216      -0.42638699 </v>
   <v>       0.27765231       0.13882616       0.45052744 </v>
   <v>      -0.38824902       0.38824902      -0.48700468 </v>
   <v>      -0.38824902       0.22350196      -0.48700468 </v>
   <v>       0.44887017       0.22443508      -0.36032909 </v>
   <v>       0.44978015       0.22489008       0.38569241 </v>
   <v>      -0.46463181       0.26768410      -0.36780459 </v>
   <v>      -0.46364787       0.26817606       0.39268918 </v>
   <v>       0.22327978       0.11163989      -0.48825700 </v>
   <v>       0.42939342       0.27590741      -0.33015430 </v>
   <v>       0.42939342       0.15348600      -0.33015430 </v>
   <v>       0.42947125       0.27574790       0.35544967 </v>
   <v>       0.42947125       0.15372335       0.35544967 </v>
   <v>      -0.28110415       0.28110415      -0.48697698 </v>
   <v>      -0.28110415       0.43779171      -0.48697698 </v>
   <v>       0.21876523       0.10938261       0.38484996 </v>
   <v>       0.21157077       0.10578539      -0.36283576 </v>
   <v>       0.26110082       0.13055041      -0.31779637 </v>
   <v>       0.23939101       0.05866755       0.35472082 </v>
   <v>       0.23939101       0.18072346       0.35472082 </v>
   <v>      -0.22350196       0.38824902      -0.48700468 </v>
   <v>       0.10441594       0.05220797      -0.48797330 </v>
   <v>       0.15942712       0.01868556      -0.36059692 </v>
   <v>       0.15942712       0.14074156      -0.36059692 </v>
   <v>      -0.26817606       0.46364787       0.39268918 </v>
   <v>      -0.26817606       0.26817606       0.39268918 </v>
   <v>      -0.26768410       0.46463181      -0.36780459 </v>
   <v>      -0.26768410       0.26768410      -0.36780459 </v>
   <v>       0.13210759       0.06605379       0.39152413 </v>
   <v>      -0.22162732      -0.44325464      -0.48722232 </v>
   <v>      -0.22162732       0.22162732      -0.48722232 </v>
   <v>       0.05487914      -0.05487914      -0.48779764 </v>
   <v>       0.05487914       0.10975829      -0.48779764 </v>
   <v>      -0.22489008      -0.44978015       0.38569241 </v>
   <v>      -0.22489008       0.22489008       0.38569241 </v>
   <v>      -0.22443508      -0.44887017      -0.36032909 </v>
   <v>      -0.22443508       0.22443508      -0.36032909 </v>
   <v>      -0.19497097      -0.38994194       0.45106518 </v>
   <v>      -0.19497097       0.19497097       0.45106518 </v>
   <v>      -0.19430913      -0.38861826      -0.42573522 </v>
   <v>      -0.19430913       0.19430913      -0.42573522 </v>
   <v>      -0.27590741      -0.42939342      -0.33015430 </v>
   <v>      -0.27590741       0.15348600      -0.33015430 </v>
   <v>      -0.27574790      -0.42947125       0.35544967 </v>
   <v>      -0.27574790       0.15372335       0.35544967 </v>
   <v>      -0.05220797      -0.10441594      -0.48797330 </v>
   <v>      -0.05220797       0.05220797      -0.48797330 </v>
   <v>      -0.15348600      -0.42939342      -0.33015430 </v>
   <v>      -0.15348600       0.27590741      -0.33015430 </v>
   <v>      -0.15372335      -0.42947125       0.35544967 </v>
   <v>      -0.15372335       0.27574790       0.35544967 </v>
   <v>      -0.01868556      -0.15942712      -0.36059692 </v>
   <v>      -0.01868556       0.14074156      -0.36059692 </v>
   <v>      -0.13882616      -0.27765231       0.45052744 </v>
   <v>      -0.13882616       0.13882616       0.45052744 </v>
   <v>      -0.13827216      -0.27654431      -0.42638699 </v>
   <v>      -0.13827216       0.13827216      -0.42638699 </v>
   <v>      -0.10975829      -0.05487914      -0.48779764 </v>
   <v>      -0.06605379      -0.13210759       0.39152413 </v>
   <v>      -0.06605379       0.06605379       0.39152413 </v>
   <v>      -0.11163989       0.11163989      -0.48825700 </v>
   <v>      -0.11163989      -0.22327978      -0.48825700 </v>
   <v>      -0.18072346      -0.23939101       0.35472082 </v>
   <v>      -0.18072346       0.05866755       0.35472082 </v>
   <v>      -0.05866755      -0.23939101       0.35472082 </v>
   <v>      -0.05866755       0.18072346       0.35472082 </v>
   <v>      -0.10578539      -0.21157077      -0.36283576 </v>
   <v>      -0.10578539       0.10578539      -0.36283576 </v>
   <v>      -0.13055041      -0.26110082      -0.31779637 </v>
   <v>      -0.13055041       0.13055041      -0.31779637 </v>
   <v>      -0.10938261      -0.21876523       0.38484996 </v>
   <v>      -0.10938261       0.10938261       0.38484996 </v>
   <v>      -0.14074156      -0.15942712      -0.36059692 </v>
   <v>      -0.14074156       0.01868556      -0.36059692 </v>
  </varray>
 </structure>
 <varray name="primitive_index" >
  <v type="int" >        1 </v>
  <v type="int" >        4 </v>
  <v type="int" >        2 </v>
  <v type="int" >        6 </v>
  <v type="int" >       24 </v>
  <v type="int" >       35 </v>
  <v type="int" >       37 </v>
  <v type="int" >       38 </v>
  <v type="int" >        3 </v>
  <v type="int" >        5 </v>
  <v type="int" >       47 </v>
  <v type="int" >       48 </v>
  <v type="int" >       25 </v>
  <v type="int" >       44 </v>
  <v type="int" >       43 </v>
  <v type="int" >       45 </v>
  <v type="int" >       46 </v>
  <v type="int" >        8 </v>
  <v type="int" >        7 </v>
  <v type="int" >       36 </v>
  <v type="int" >       26 </v>
  <v type="int" >       65 </v>
  <v type="int" >       77 </v>
  <v type="int" >       78 </v>
  <v type="int" >       39 </v>
  <v type="int" >       10 </v>
  <v type="int" >       66 </v>
  <v type="int" >       67 </v>
  <v type="int" >       55 </v>
  <v type="int" >       53 </v>
  <v type="int" >       51 </v>
  <v type="int" >       49 </v>
  <v type="int" >       76 </v>
  <v type="int" >       18 </v>
  <v type="int" >       12 </v>
  <v type="int" >       40 </v>
  <v type="int" >       41 </v>
  <v type="int" >       34 </v>
  <v type="int" >       30 </v>
  <v type="int" >       23 </v>
  <v type="int" >       17 </v>
  <v type="int" >       32 </v>
  <v type="int" >       28 </v>
  <v type="int" >       19 </v>
  <v type="int" >       13 </v>
  <v type="int" >       52 </v>
  <v type="int" >       50 </v>
  <v type="int" >       56 </v>
  <v type="int" >       54 </v>
  <v type="int" >        9 </v>
  <v type="int" >       11 </v>
  <v type="int" >       64 </v>
  <v type="int" >       60 </v>
  <v type="int" >       75 </v>
  <v type="int" >       71 </v>
  <v type="int" >       63 </v>
  <v type="int" >       58 </v>
  <v type="int" >       31 </v>
  <v type="int" >       27 </v>
  <v type="int" >       20 </v>
  <v type="int" >       14 </v>
  <v type="int" >       42 </v>
  <v type="int" >       72 </v>
  <v type="int" >       68 </v>
  <v type="int" >       15 </v>
  <v type="int" >       21 </v>
  <v type="int" >       73 </v>
  <v type="int" >       70 </v>
  <v type="int" >       74 </v>
  <v type="int" >       69 </v>
  <v type="int" >       22 </v>
  <v type="int" >       16 </v>
  <v type="int" >       61 </v>
  <v type="int" >       57 </v>
  <v type="int" >       33 </v>
  <v type="int" >       29 </v>
  <v type="int" >       62 </v>
  <v type="int" >       59 </v>
 </varray>
 <kpoints>
  <generation param="listgenerated">
   <i name="divisions" type="int">      20 </i>
   <v>       0.00000000       0.00000000       0.00000000 </v>
   <v>       0.50000000       0.00000000       0.00000000 </v>
   <v>       0.33333333       0.33333333       0.00000000 </v>
   <v>       0.00000000       0.00000000       0.00000000 </v>
  </generation>
  <varray name="kpointlist" >
   <v>       0.00000000       0.00000000       0.00000000 </v>
   <v>       0.02631579       0.00000000       0.00000000 </v>
   <v>       0.05263158       0.00000000       0.00000000 </v>
   <v>       0.07894737       0.00000000       0.00000000 </v>
   <v>       0.10526316       0.00000000       0.00000000 </v>
   <v>       0.13157895       0.00000000       0.00000000 </v>
   <v>       0.15789474       0.00000000       0.00000000 </v>
   <v>       0.18421053       0.00000000       0.00000000 </v>
   <v>       0.21052632       0.00000000       0.00000000 </v>
   <v>       0.23684211       0.00000000       0.00000000 </v>
   <v>       0.26315789       0.00000000       0.00000000 </v>
   <v>       0.28947368       0.00000000       0.00000000 </v>
   <v>       0.31578947       0.00000000       0.00000000 </v>
   <v>       0.34210526       0.00000000       0.00000000 </v>
   <v>       0.36842105       0.00000000       0.00000000 </v>
   <v>       0.39473684       0.00000000       0.00000000 </v>
   <v>       0.42105263       0.00000000       0.00000000 </v>
   <v>       0.44736842       0.00000000       0.00000000 </v>
   <v>       0.47368421       0.00000000       0.00000000 </v>
   <v>       0.50000000       0.00000000       0.00000000 </v>
   <v>       0.50000000       0.00000000       0.00000000 </v>
   <v>       0.49122807       0.01754386       0.00000000 </v>
   <v>       0.48245614       0.03508772       0.00000000 </v>
   <v>       0.47368421       0.05263158       0.00000000 </v>
   <v>       0.46491228       0.07017544       0.00000000 </v>
   <v>       0.45614035       0.08771930       0.00000000 </v>
   <v>       0.44736842       0.10526316       0.00000000 </v>
   <v>       0.43859649       0.12280702       0.00000000 </v>
   <v>       0.42982456       0.14035088       0.00000000 </v>
   <v>       0.42105263       0.15789474       0.00000000 </v>
   <v>       0.41228070       0.17543860       0.00000000 </v>
   <v>       0.40350877       0.19298246       0.00000000 </v>
   <v>       0.39473684       0.21052632       0.00000000 </v>
   <v>       0.38596491       0.22807018       0.00000000 </v>
   <v>       0.37719298       0.24561404       0.00000000 </v>
   <v>       0.36842105       0.26315789       0.00000000 </v>
   <v>       0.35964912       0.28070175       0.00000000 </v>
   <v>       0.35087719       0.29824561       0.00000000 </v>
   <v>       0.34210526       0.31578947       0.00000000 </v>
   <v>       0.33333333       0.33333333       0.00000000 </v>
   <v>       0.33333333       0.33333333       0.00000000 </v>
   <v>       0.31578947       0.31578947       0.00000000 </v>
   <v>       0.29824561       0.29824561       0.00000000 </v>
   <v>       0.28070175       0.28070175       0.00000000 </v>
   <v>       0.26315789       0.26315789       0.00000000 </v>
   <v>       0.24561404       0.24561404       0.00000000 </v>
   <v>       0.22807018       0.22807018       0.00000000 </v>
   <v>       0.21052632       0.21052632       0.00000000 </v>
   <v>       0.19298246       0.19298246       0.00000000 </v>
   <v>       0.17543860       0.17543860       0.00000000 </v>
   <v>       0.15789474       0.15789474       0.00000000 </v>
   <v>       0.14035088       0.14035088       0.00000000 </v>
   <v>       0.12280702       0.12280702       0.00000000 </v>
   <v>       0.10526316       0.10526316       0.00000000 </v>
   <v>       0.08771930       0.08771930       0.00000000 </v>
   <v>       0.07017544       0.07017544       0.00000000 </v>
   <v>       0.05263158       0.05263158       0.00000000 </v>
   <v>       0.03508772       0.03508772       0.00000000 </v>
   <v>       0.01754386       0.01754386       0.00000000 </v>
   <v>       0.00000000       0.00000000       0.00000000 </v>
  </varray>
  <varray name="weights" >
   <v>       0.01666667 </v>
   <v>       0.01666667 </v>
   <v>       0.01666667 </v>
   <v>       0.01666667 </v>
   <v>       0.01666667 </v>
   <v>       0.01666667 </v>
   <v>       0.01666667 </v>
   <v>       0.01666667 </v>
   <v>       0.01666667 </v>
   <v>       0.01666667 </v>
   <v>       0.01666667 </v>
   <v>       0.01666667 </v>
   <v>       0.01666667 </v>
   <v>       0.01666667 </v>
   <v>       0.01666667 </v>
   <v>       0.01666667 </v>
   <v>       0.01666667 </v>
   <v>       0.01666667 </v>
   <v>       0.01666667 </v>
   <v>       0.01666667 </v>
   <v>       0.01666667 </v>
   <v>       0.01666667 </v>
   <v>       0.01666667 </v>
   <v>       0.01666667 </v>
   <v>       0.01666667 </v>
   <v>       0.01666667 </v>
   <v>       0.01666667 </v>
   <v>       0.01666667 </v>
   <v>       0.01666667 </v>
   <v>       0.01666667 </v>
   <v>       0.01666667 </v>
   <v>       0.01666667 </v>
   <v>       0.01666667 </v>
   <v>       0.01666667 </v>
   <v>       0.01666667 </v>
   <v>       0.01666667 </v>
   <v>       0.01666667 </v>
   <v>       0.01666667 </v>
   <v>       0.01666667 </v>
   <v>       0.01666667 </v>
   <v>       0.01666667 </v>
   <v>       0.01666667 </v>
   <v>       0.01666667 </v>
   <v>       0.01666667 </v>
   <v>       0.01666667 </v>
   <v>       0.01666667 </v>
   <v>       0.01666667 </v>
   <v>       0.01666667 </v>
   <v>       0.01666667 </v>
   <v>       0.01666667 </v>
   <v>       0.01666667 </v>
   <v>       0.01666667 </v>
   <v>       0.01666667 </v>
   <v>       0.01666667 </v>
   <v>       0.01666667 </v>
   <v>       0.01666667 </v>
   <v>       0.01666667 </v>
   <v>       0.01666667 </v>
   <v>       0.01666667 </v>
   <v>       0.01666667 </v>
  </varray>
 </kpoints>
 <parameters>
  <separator name="general" >
   <i type="string" name="SYSTEM">Simulation for cell shape cell volume r</i>
   <i type="logical" name="LCOMPAT"> F  </i>
  </separator>
  <separator name="electronic" >
   <i type="string" name="PREC">high</i>
   <i name="ENMAX">    500.00000000</i>
   <i name="ENAUG">    644.87300000</i>
   <i name="EDIFF">      0.00001000</i>
   <i type="int" name="IALGO">    38</i>
   <i type="int" name="IWAVPR">    10</i>
   <i type="int" name="NBANDS">   160</i>
   <i name="NELECT">    210.00000000</i>
   <i type="int" name="TURBO">     0</i>
   <i type="int" name="IRESTART">     0</i>
   <i type="int" name="NREBOOT">     0</i>
   <i type="int" name="NMIN">     0</i>
   <i name="EREF">      0.00000000</i>
   <separator name="electronic smearing" >
    <i type="int" name="ISMEAR">     0</i>
    <i name="SIGMA">      0.01000000</i>
    <i name="KSPACING">      0.50000000</i>
    <i type="logical" name="KGAMMA"> T  </i>
   </separator>
   <separator name="electronic projectors" >
    <i type="logical" name="LREAL"> T  </i>
    <v name="ROPT">     -0.00040000     -0.00040000     -0.00040000</v>
    <i type="int" name="LMAXPAW">  -100</i>
    <i type="int" name="LMAXMIX">     2</i>
    <i type="logical" name="NLSPLINE"> F  </i>
   </separator>
   <separator name="electronic startup" >
    <i type="int" name="ISTART">     1</i>
    <i type="int" name="ICHARG">    11</i>
    <i type="int" name="INIWAV">     1</i>
   </separator>
   <separator name="electronic spin" >
    <i type="int" name="ISPIN">     1</i>
    <i type="logical" name="LNONCOLLINEAR"> F  </i>
    <v name="MAGMOM">      1.00000000      1.00000000      1.00000000      1.00000000      1.00000000      1.00000000      1.00000000      1.00000000      1.00000000      1.00000000      1.00000000      1.00000000      1.00000000      1.00000000      1.00000000      1.00000000      1.00000000      1.00000000      1.00000000      1.00000000
      1.00000000      1.00000000      1.00000000      1.00000000      1.00000000      1.00000000      1.00000000      1.00000000      1.00000000      1.00000000      1.00000000      1.00000000      1.00000000      1.00000000      1.00000000      1.00000000      1.00000000      1.00000000      1.00000000      1.00000000
      1.00000000      1.00000000      1.00000000      1.00000000      1.00000000      1.00000000      1.00000000      1.00000000      1.00000000      1.00000000      1.00000000      1.00000000      1.00000000      1.00000000      1.00000000      1.00000000      1.00000000      1.00000000      1.00000000      1.00000000
      1.00000000      1.00000000      1.00000000      1.00000000      1.00000000      1.00000000      1.00000000      1.00000000      1.00000000      1.00000000      1.00000000      1.00000000      1.00000000      1.00000000      1.00000000      1.00000000      1.00000000      1.00000000</v>
    <i name="NUPDOWN">     -1.00000000</i>
    <i type="logical" name="LSORBIT"> F  </i>
    <v name="SAXIS">      0.00000000      0.00000000      1.00000000</v>
    <i type="logical" name="LSPIRAL"> F  </i>
    <v name="QSPIRAL">      0.00000000      0.00000000      0.00000000</v>
    <i type="logical" name="LZEROZ"> F  </i>
   </separator>
   <separator name="electronic exchange-correlation" >
    <i type="logical" name="LASPH"> F  </i>
    <i type="logical" name="LMETAGGA"> F  </i>
   </separator>
   <separator name="electronic convergence" >
    <i type="int" name="NELM">   200</i>
    <i type="int" name="NELMDL">     0</i>
    <i type="int" name="NELMIN">     2</i>
    <i name="ENINI">    500.00000000</i>
    <separator name="electronic convergence detail" >
     <i type="logical" name="LDIAG"> T  </i>
     <i type="logical" name="LSUBROT"> F  </i>
     <i name="WEIMIN">      0.00000000</i>
     <i name="EBREAK">      0.00000002</i>
     <i name="DEPER">      0.30000000</i>
     <i type="int" name="NRMM">     4</i>
     <i name="TIME">      0.40000000</i>
    </separator>
   </separator>
   <separator name="electronic mixer" >
    <i name="AMIX">      0.40000000</i>
    <i name="BMIX">      1.00000000</i>
    <i name="AMIN">      0.10000000</i>
    <i name="AMIX_MAG">      1.60000000</i>
    <i name="BMIX_MAG">      1.00000000</i>
    <separator name="electronic mixer details" >
     <i type="int" name="IMIX">     4</i>
     <i type="logical" name="MIXFIRST"> F  </i>
     <i type="int" name="MAXMIX">   -45</i>
     <i name="WC">    100.00000000</i>
     <i type="int" name="INIMIX">     1</i>
     <i type="int" name="MIXPRE">     1</i>
     <i type="int" name="MREMOVE">     5</i>
    </separator>
   </separator>
   <separator name="electronic dipolcorrection" >
    <i type="logical" name="LDIPOL"> F  </i>
    <i type="logical" name="LMONO"> F  </i>
    <i type="int" name="IDIPOL">     0</i>
    <i name="EPSILON">      1.00000000</i>
    <v name="DIPOL">   -100.00000000   -100.00000000   -100.00000000</v>
    <i name="EFIELD">      0.00000000</i>
   </separator>
  </separator>
  <separator name="grids" >
   <i type="int" name="NGX">   108</i>
   <i type="int" name="NGY">   108</i>
   <i type="int" name="NGZ">   150</i>
   <i type="int" name="NGXF">   160</i>
   <i type="int" name="NGYF">   160</i>
   <i type="int" name="NGZF">   224</i>
   <i type="logical" name="ADDGRID"> F  </i>
  </separator>
  <separator name="ionic" >
   <i type="int" name="NSW">     0</i>
   <i type="int" name="IBRION">    -1</i>
   <i type="int" name="MDALGO">     0</i>
   <i type="int" name="ISIF">     2</i>
   <i name="PSTRESS">      0.00000000</i>
   <i name="EDIFFG">     -0.01000000</i>
   <i type="int" name="NFREE">     0</i>
   <i name="POTIM">      0.30000000</i>
   <i name="SMASS">     -3.00000000</i>
   <i name="SCALEE">      1.00000000</i>
  </separator>
  <separator name="ionic md" >
   <i name="TEBEG">      0.00010000</i>
   <i name="TEEND">      0.00010000</i>
   <i type="int" name="NBLOCK">     1</i>
   <i type="int" name="KBLOCK">     1</i>
   <i type="int" name="NPACO">   256</i>
   <i name="APACO">     16.00000000</i>
  </separator>
  <separator name="symmetry" >
   <i type="int" name="ISYM">     2</i>
   <i name="SYMPREC">      0.00001000</i>
  </separator>
  <separator name="dos" >
   <i type="int" name="LORBIT">     0</i>
   <v name="RWIGS">     -1.00000000     -1.00000000     -1.00000000</v>
   <i type="int" name="NEDOS">   301</i>
   <i name="EMIN">     10.00000000</i>
   <i name="EMAX">    -10.00000000</i>
   <i name="EFERMI">      0.00000000</i>
  </separator>
  <separator name="writing" >
   <i type="int" name="NWRITE">     0</i>
   <i type="logical" name="LWAVE"> F  </i>
   <i type="logical" name="LDOWNSAMPLE"> F  </i>
   <i type="logical" name="LCHARG"> F  </i>
   <i type="logical" name="LPARD"> F  </i>
   <i type="logical" name="LVTOT"> F  </i>
   <i type="logical" name="LVHAR"> F  </i>
   <i type="logical" name="LELF"> F  </i>
   <i type="logical" name="LOPTICS"> F  </i>
   <v name="STM">      0.00000000      0.00000000      0.00000000      0.00000000      0.00000000      0.00000000      0.00000000</v>
  </separator>
  <separator name="performance" >
   <i type="int" name="NPAR">    16</i>
   <i type="int" name="NSIM">     4</i>
   <i type="int" name="NBLK">    -1</i>
   <i type="logical" name="LPLANE"> T  </i>
   <i type="logical" name="LSCALAPACK"> T  </i>
   <i type="logical" name="LSCAAWARE"> F  </i>
   <i type="logical" name="LSCALU"> F  </i>
   <i type="logical" name="LASYNC"> F  </i>
   <i type="logical" name="LORBITALREAL"> F  </i>
  </separator>
  <separator name="miscellaneous" >
   <i type="int" name="IDIOT">     3</i>
   <i type="int" name="ISPECIAL">     0</i>
   <i type="logical" name="LMUSIC"> F  </i>
   <v name="POMASS">     12.01100000     14.00100000      1.00000000</v>
   <v name="DARWINR">      0.00000000      0.00000000      0.00000000</v>
   <v name="DARWINV">      1.00000000      1.00000000      1.00000000</v>
   <i type="logical" name="LCORR"> T  </i>
  </separator>
  <i type="logical" name="GGA_COMPAT"> T  </i>
  <i type="logical" name="LBERRY"> F  </i>
  <i type="int" name="ICORELEVEL">     0</i>
  <i type="logical" name="LDAU"> F  </i>
  <i type="int" name="I_CONSTRAINED_M">     0</i>
  <separator name="electronic exchange-correlation" >
   <i type="string" name="GGA">PE</i>
   <i type="int" name="VOSKOWN">     0</i>
   <i type="logical" name="LHFCALC"> F  </i>
   <i type="string" name="PRECFOCK"></i>
   <i type="logical" name="LSYMGRAD"> F  </i>
   <i type="logical" name="LHFONE"> F  </i>
   <i type="logical" name="LRHFCALC"> F  </i>
   <i type="logical" name="LTHOMAS"> F  </i>
   <i type="logical" name="LMODELHF"> F  </i>
   <i name="ENCUT4O">     -1.00000000</i>
   <i type="int" name="EXXOEP">     0</i>
   <i type="int" name="FOURORBIT">     0</i>
   <i name="AEXX">      0.00000000</i>
   <i name="HFALPHA">      0.00000000</i>
   <i name="MCALPHA">      0.00000000</i>
   <i name="ALDAX">      1.00000000</i>
   <i name="AGGAX">      1.00000000</i>
   <i name="ALDAC">      1.00000000</i>
   <i name="AGGAC">      1.00000000</i>
   <i type="int" name="NKREDX">     1</i>
   <i type="int" name="NKREDY">     1</i>
   <i type="int" name="NKREDZ">     1</i>
   <i type="logical" name="SHIFTRED"> F  </i>
   <i type="logical" name="ODDONLY"> F  </i>
   <i type="logical" name="EVENONLY"> F  </i>
   <i type="int" name="LMAXFOCK">     0</i>
   <i type="int" name="NMAXFOCKAE">     0</i>
   <i type="logical" name="LFOCKAEDFT"> F  </i>
   <i name="HFSCREEN">      0.00000000</i>
   <i name="HFSCREENC">      0.00000000</i>
   <i type="int" name="NBANDSGWLOW">     0</i>
  </separator>
  <separator name="vdW DFT" >
   <i type="logical" name="LUSE_VDW"> F  </i>
   <i name="Zab_VDW">     -0.84910000</i>
   <i name="PARAM1">      0.12340000</i>
   <i name="PARAM2">      1.00000000</i>
   <i name="PARAM3">      0.00000000</i>
  </separator>
  <separator name="model GW" >
   <i type="int" name="MODEL_GW">     0</i>
   <i name="MODEL_EPS0">     27.97799532</i>
   <i name="MODEL_ALPHA">      1.00000000</i>
  </separator>
  <separator name="linear response parameters" >
   <i type="logical" name="LEPSILON"> F  </i>
   <i type="logical" name="LRPA"> F  </i>
   <i type="logical" name="LNABLA"> F  </i>
   <i type="logical" name="LVEL"> F  </i>
   <i type="int" name="KINTER">     0</i>
   <i name="CSHIFT">      0.10000000</i>
   <i name="OMEGAMAX">     -1.00000000</i>
   <i name="DEG_THRESHOLD">      0.00200000</i>
   <i name="RTIME">     -0.10000000</i>
   <i name="WPLASMAI">      0.00000000</i>
   <v name="DFIELD">      0.00000000      0.00000000      0.00000000</v>
   <v name="WPLASMA">      0.00000000      0.00000000      0.00000000      0.00000000      0.00000000      0.00000000      0.00000000      0.00000000      0.00000000</v>
  </separator>
  <separator name="orbital magnetization" >
   <i type="logical" name="NUCIND"> F  </i>
   <v name="MAGPOS">      0.00000000      0.00000000      0.00000000</v>
   <i type="logical" name="LNICSALL"> T  </i>
   <i type="logical" name="ORBITALMAG"> F  </i>
   <i type="logical" name="LMAGBLOCH"> F  </i>
   <i type="logical" name="LCHIMAG"> F  </i>
   <i type="logical" name="LGAUGE"> T  </i>
   <i type="int" name="MAGATOM">     0</i>
   <v name="MAGDIPOL">      0.00000000      0.00000000      0.00000000</v>
   <v name="AVECCONST">      0.00000000      0.00000000      0.00000000</v>
  </separator>
  <separator name="response functions" >
   <i type="logical" name="LADDER"> F  </i>
   <i type="logical" name="LRPAFORCE"> F  </i>
   <i type="logical" name="LFXC"> F  </i>
   <i type="logical" name="LHARTREE"> T  </i>
   <i type="int" name="IBSE">     0</i>
   <v type="int" name="KPOINT">    -1     0     0     0</v>
   <i type="logical" name="LTCTE"> F  </i>
   <i type="logical" name="LTETE"> F  </i>
   <i type="logical" name="LTRIPLET"> F  </i>
   <i type="logical" name="LFXCEPS"> F  </i>
   <i type="logical" name="LFXHEG"> F  </i>
   <i type="int" name="NATURALO">     2</i>
   <i type="logical" name="L2ORDER"> F  </i>
   <i type="logical" name="LMP2LT"> F  </i>
   <i type="logical" name="LUSEW"> F  </i>
   <i name="ENCUTGW">     -2.00000000</i>
   <i name="ENCUTGWSOFT">     -2.00000000</i>
   <i name="ENCUTLF">     -1.00000000</i>
   <i type="int" name="LMAXMP2">    -1</i>
   <i name="SCISSOR">      0.00000000</i>
   <i type="int" name="NOMEGA">     0</i>
   <i type="int" name="NOMEGAR">     0</i>
   <i type="int" name="NBANDSGW">    -1</i>
   <i type="int" name="NBANDSO">    -1</i>
   <i type="int" name="NBANDSV">    -1</i>
   <i type="int" name="NELM">   200</i>
   <i type="int" name="NELMHF">     1</i>
   <i type="int" name="DIM">     3</i>
   <i type="int" name="ANTIRES">     0</i>
   <i name="OMEGAMAX">    -30.00000000</i>
   <i name="OMEGAMIN">    -30.00000000</i>
   <i name="OMEGATL">   -200.00000000</i>
   <i type="int" name="OMEGAGRID">   140</i>
   <i name="CSHIFT">     -0.10000000</i>
   <i type="logical" name="SELFENERGY"> F  </i>
   <i type="logical" name="LSPECTRAL"> F  </i>
   <i type="logical" name="LSPECTRALGW"> F  </i>
   <i type="logical" name="LSINGLES"> F  </i>
   <i type="logical" name="LFERMIGW"> F  </i>
   <i type="logical" name="ODDONLYGW"> F  </i>
   <i type="logical" name="EVENONLYGW"> F  </i>
   <i type="int" name="NKREDLFX">     1</i>
   <i type="int" name="NKREDLFY">     1</i>
   <i type="int" name="NKREDLFZ">     1</i>
   <i type="int" name="MAXMEM">  2800</i>
   <i type="int" name="TELESCOPE">     0</i>
   <i type="int" name="TAUPAR">     1</i>
   <i type="int" name="OMEGAPAR">    -1</i>
   <i name="LAMBDA">      1.00000000</i>
  </separator>
  <separator name="External order field" >
   <i name="OFIELD_KAPPA">      0.00000000</i>
   <v name="OFIELD_K">      0.00000000      0.00000000      0.00000000</v>
   <i name="OFIELD_Q6_NEAR">      0.00000000</i>
   <i name="OFIELD_Q6_FAR">      0.00000000</i>
   <i name="OFIELD_A">      0.00000000</i>
  </separator>
  <separator name="solvation model" >
   <i type="logical" name="LSOL"> F  </i>
  </separator>
 </parameters>
 <atominfo>
  <atoms>      78 </atoms>
  <types>       3 </types>
  <array name="atoms" >
   <dimension dim="1">ion</dimension>
   <field type="string">element</field>
   <field type="int">atomtype</field>
   <set>
    <rc><c>C </c><c>   1</c></rc>
    <rc><c>C </c><c>   1</c></rc>
    <rc><c>C </c><c>   1</c></rc>
    <rc><c>C </c><c>   1</c></rc>
    <rc><c>C </c><c>   1</c></rc>
    <rc><c>C </c><c>   1</c></rc>
    <rc><c>C </c><c>   1</c></rc>
    <rc><c>C </c><c>   1</c></rc>
    <rc><c>C </c><c>   1</c></rc>
    <rc><c>C </c><c>   1</c></rc>
    <rc><c>C </c><c>   1</c></rc>
    <rc><c>C </c><c>   1</c></rc>
    <rc><c>C </c><c>   1</c></rc>
    <rc><c>C </c><c>   1</c></rc>
    <rc><c>C </c><c>   1</c></rc>
    <rc><c>C </c><c>   1</c></rc>
    <rc><c>C </c><c>   1</c></rc>
    <rc><c>C </c><c>   1</c></rc>
    <rc><c>C </c><c>   1</c></rc>
    <rc><c>C </c><c>   1</c></rc>
    <rc><c>C </c><c>   1</c></rc>
    <rc><c>C </c><c>   1</c></rc>
    <rc><c>C </c><c>   1</c></rc>
    <rc><c>C </c><c>   1</c></rc>
    <rc><c>C </c><c>   1</c></rc>
    <rc><c>C </c><c>   1</c></rc>
    <rc><c>C </c><c>   1</c></rc>
    <rc><c>C </c><c>   1</c></rc>
    <rc><c>C </c><c>   1</c></rc>
    <rc><c>C </c><c>   1</c></rc>
    <rc><c>C </c><c>   1</c></rc>
    <rc><c>C </c><c>   1</c></rc>
    <rc><c>C </c><c>   1</c></rc>
    <rc><c>C </c><c>   1</c></rc>
    <rc><c>C </c><c>   1</c></rc>
    <rc><c>C </c><c>   1</c></rc>
    <rc><c>N </c><c>   2</c></rc>
    <rc><c>N </c><c>   2</c></rc>
    <rc><c>N </c><c>   2</c></rc>
    <rc><c>N </c><c>   2</c></rc>
    <rc><c>N </c><c>   2</c></rc>
    <rc><c>N </c><c>   2</c></rc>
    <rc><c>H </c><c>   3</c></rc>
    <rc><c>H </c><c>   3</c></rc>
    <rc><c>H </c><c>   3</c></rc>
    <rc><c>H </c><c>   3</c></rc>
    <rc><c>H </c><c>   3</c></rc>
    <rc><c>H </c><c>   3</c></rc>
    <rc><c>H </c><c>   3</c></rc>
    <rc><c>H </c><c>   3</c></rc>
    <rc><c>H </c><c>   3</c></rc>
    <rc><c>H </c><c>   3</c></rc>
    <rc><c>H </c><c>   3</c></rc>
    <rc><c>H </c><c>   3</c></rc>
    <rc><c>H </c><c>   3</c></rc>
    <rc><c>H </c><c>   3</c></rc>
    <rc><c>H </c><c>   3</c></rc>
    <rc><c>H </c><c>   3</c></rc>
    <rc><c>H </c><c>   3</c></rc>
    <rc><c>H </c><c>   3</c></rc>
    <rc><c>H </c><c>   3</c></rc>
    <rc><c>H </c><c>   3</c></rc>
    <rc><c>H </c><c>   3</c></rc>
    <rc><c>H </c><c>   3</c></rc>
    <rc><c>H </c><c>   3</c></rc>
    <rc><c>H </c><c>   3</c></rc>
    <rc><c>H </c><c>   3</c></rc>
    <rc><c>H </c><c>   3</c></rc>
    <rc><c>H </c><c>   3</c></rc>
    <rc><c>H </c><c>   3</c></rc>
    <rc><c>H </c><c>   3</c></rc>
    <rc><c>H </c><c>   3</c></rc>
    <rc><c>H </c><c>   3</c></rc>
    <rc><c>H </c><c>   3</c></rc>
    <rc><c>H </c><c>   3</c></rc>
    <rc><c>H </c><c>   3</c></rc>
    <rc><c>H </c><c>   3</c></rc>
    <rc><c>H </c><c>   3</c></rc>
   </set>
  </array>
  <array name="atomtypes" >
   <dimension dim="1">type</dimension>
   <field type="int">atomspertype</field>
   <field type="string">element</field>
   <field>mass</field>
   <field>valence</field>
   <field type="string">pseudopotential</field>
   <set>
    <rc><c>  36</c><c>C </c><c>     12.01100000</c><c>      4.00000000</c><c>  PAW_PBE C 08Apr2002                   </c></rc>
    <rc><c>   6</c><c>N </c><c>     14.00100000</c><c>      5.00000000</c><c>  PAW_PBE N 08Apr2002                   </c></rc>
    <rc><c>  36</c><c>H </c><c>      1.00000000</c><c>      1.00000000</c><c>  PAW_PBE H 15Jun2001                   </c></rc>
   </set>
  </array>
 </atominfo>
 <structure name="initialpos" >
  <crystal>
   <varray name="basis" >
    <v>      14.49104346       0.00000000       0.00000000 </v>
    <v>      -7.24552173      12.54961177       0.00000000 </v>
    <v>       0.00000000       0.00000000      20.00000000 </v>
   </varray>
   <i name="volume">   3637.13939117 </i>
   <varray name="rec_basis" >
    <v>       0.06900814       0.03984187       0.00000000 </v>
    <v>       0.00000000       0.07968374       0.00000000 </v>
    <v>       0.00000000       0.00000000       0.05000000 </v>
   </varray>
  </crystal>
  <varray name="positions" >
   <v>       0.44325464       0.22162732       0.51277768 </v>
   <v>       0.38861826       0.19430913       0.57426478 </v>
   <v>       0.44887017       0.22443508       0.63967091 </v>
   <v>       0.38994194       0.19497097       0.45106518 </v>
   <v>       0.44978015       0.22489008       0.38569241 </v>
   <v>       0.56220829       0.28110415       0.51302302 </v>
   <v>       0.71889585       0.43779171       0.51302302 </v>
   <v>       0.71889585       0.28110415       0.51302302 </v>
   <v>       0.94779203       0.89558406       0.51202670 </v>
   <v>       0.10441594       0.05220797       0.51202670 </v>
   <v>       0.94779203       0.05220797       0.51202670 </v>
   <v>       0.77837268       0.22162732       0.51277768 </v>
   <v>       0.80569087       0.19430913       0.57426478 </v>
   <v>       0.86172784       0.13827216       0.57361301 </v>
   <v>       0.88836011       0.11163989       0.51174300 </v>
   <v>       0.89421461       0.10578539       0.63716424 </v>
   <v>       0.77556492       0.22443508       0.63967091 </v>
   <v>       0.77837268       0.55674536       0.51277768 </v>
   <v>       0.80569087       0.61138174       0.57426478 </v>
   <v>       0.86172784       0.72345569       0.57361301 </v>
   <v>       0.88836011       0.77672022       0.51174300 </v>
   <v>       0.89421461       0.78842923       0.63716424 </v>
   <v>       0.77556492       0.55112983       0.63967091 </v>
   <v>       0.27654431       0.13827216       0.57361301 </v>
   <v>       0.22327978       0.11163989       0.51174300 </v>
   <v>       0.21157077       0.10578539       0.63716424 </v>
   <v>       0.86117384       0.13882616       0.45052744 </v>
   <v>       0.80502903       0.19497097       0.45106518 </v>
   <v>       0.89061739       0.10938261       0.38484996 </v>
   <v>       0.77510992       0.22489008       0.38569241 </v>
   <v>       0.86117384       0.72234769       0.45052744 </v>
   <v>       0.80502903       0.61005806       0.45106518 </v>
   <v>       0.89061739       0.78123477       0.38484996 </v>
   <v>       0.77510992       0.55021985       0.38569241 </v>
   <v>       0.27765231       0.13882616       0.45052744 </v>
   <v>       0.21876523       0.10938261       0.38484996 </v>
   <v>       0.61175098       0.38824902       0.51299532 </v>
   <v>       0.61175098       0.22350196       0.51299532 </v>
   <v>       0.77649804       0.38824902       0.51299532 </v>
   <v>       0.05487914       0.94512086       0.51220236 </v>
   <v>       0.05487914       0.10975829       0.51220236 </v>
   <v>       0.89024171       0.94512086       0.51220236 </v>
   <v>       0.42939342       0.15348600       0.66984570 </v>
   <v>       0.42939342       0.27590741       0.66984570 </v>
   <v>       0.42947125       0.27574790       0.35544967 </v>
   <v>       0.42947125       0.15372335       0.35544967 </v>
   <v>       0.53536819       0.26768410       0.63219541 </v>
   <v>       0.53635213       0.26817606       0.39268918 </v>
   <v>       0.73231590       0.26768410       0.63219541 </v>
   <v>       0.72409259       0.15348600       0.66984570 </v>
   <v>       0.73231590       0.46463181       0.63219541 </v>
   <v>       0.72409259       0.57060658       0.66984570 </v>
   <v>       0.73182394       0.26817606       0.39268918 </v>
   <v>       0.72425210       0.15372335       0.35544967 </v>
   <v>       0.73182394       0.46364787       0.39268918 </v>
   <v>       0.72425210       0.57052875       0.35544967 </v>
   <v>       0.86944959       0.13055041       0.68220363 </v>
   <v>       0.98131444       0.14074156       0.63940308 </v>
   <v>       0.85925844       0.01868556       0.63940308 </v>
   <v>       0.84651400       0.27590741       0.66984570 </v>
   <v>       0.86944959       0.73889918       0.68220363 </v>
   <v>       0.85925844       0.84057288       0.63940308 </v>
   <v>       0.98131444       0.84057288       0.63940308 </v>
   <v>       0.84651400       0.57060658       0.66984570 </v>
   <v>       0.26110082       0.13055041       0.68220363 </v>
   <v>       0.15942712       0.01868556       0.63940308 </v>
   <v>       0.15942712       0.14074156       0.63940308 </v>
   <v>       0.93394621       0.06605379       0.39152413 </v>
   <v>       0.94133245       0.18072346       0.35472082 </v>
   <v>       0.81927654       0.05866755       0.35472082 </v>
   <v>       0.84627665       0.27574790       0.35544967 </v>
   <v>       0.93394621       0.86789241       0.39152413 </v>
   <v>       0.81927654       0.76060899       0.35472082 </v>
   <v>       0.94133245       0.76060899       0.35472082 </v>
   <v>       0.84627665       0.57052875       0.35544967 </v>
   <v>       0.13210759       0.06605379       0.39152413 </v>
   <v>       0.23939101       0.05866755       0.35472082 </v>
   <v>       0.23939101       0.18072346       0.35472082 </v>
  </varray>
 </structure>
 <calculation>
  <scstep>
   <time name="dav">   42.21   42.61</time>
   <time name="total">   42.29   42.70</time>
   <energy>
    <i name="alphaZ">     55.21556501 </i>
    <i name="ewald">  23404.25703246 </i>
    <i name="hartreedc"> -29565.86373655 </i>
    <i name="XCdc">    717.14600248 </i>
    <i name="pawpsdc">  18232.15925574 </i>
    <i name="pawaedc"> -18265.88148208 </i>
    <i name="eentropy">     -0.00000000 </i>
    <i name="bandstr">  -2417.35307381 </i>
    <i name="atom">   7334.06375257 </i>
    <i name="e_fr_energy">   -506.25668419 </i>
    <i name="e_wo_entrp">   -506.25668419 </i>
    <i name="e_0_energy">   -506.25668419 </i>
   </energy>
  </scstep>
  <scstep>
   <time name="dav">   44.44   44.82</time>
   <time name="total">   44.45   44.82</time>
   <energy>
    <i name="e_fr_energy">   -506.76431251 </i>
    <i name="e_wo_entrp">   -506.76431251 </i>
    <i name="e_0_energy">   -506.76431251 </i>
   </energy>
  </scstep>
  <scstep>
   <time name="dav">   49.13   49.57</time>
   <time name="total">   49.13   49.58</time>
   <energy>
    <i name="e_fr_energy">   -506.77588563 </i>
    <i name="e_wo_entrp">   -506.77588563 </i>
    <i name="e_0_energy">   -506.77588563 </i>
   </energy>
  </scstep>
  <scstep>
   <time name="dav">   45.67   46.05</time>
   <time name="total">   45.68   46.06</time>
   <energy>
    <i name="e_fr_energy">   -506.77608947 </i>
    <i name="e_wo_entrp">   -506.77608947 </i>
    <i name="e_0_energy">   -506.77608947 </i>
   </energy>
  </scstep>
  <scstep>
   <time name="dav">   43.17   43.55</time>
   <time name="total">   43.18   43.56</time>
   <energy>
    <i name="alphaZ">     55.21556501 </i>
    <i name="ewald">  23404.25703246 </i>
    <i name="hartreedc"> -29565.86373655 </i>
    <i name="XCdc">    717.14600248 </i>
    <i name="pawpsdc">  18232.15925574 </i>
    <i name="pawaedc"> -18265.88148208 </i>
    <i name="eentropy">     -0.00000000 </i>
    <i name="bandstr">  -2417.87248862 </i>
    <i name="atom">   7334.06375257 </i>
    <i name="e_fr_energy">   -506.77609900 </i>
    <i name="e_wo_entrp">   -506.77609900 </i>
    <i name="e_0_energy">   -506.77609900 </i>
   </energy>
  </scstep>
  <structure>
   <crystal>
    <varray name="basis" >
     <v>      14.49104346       0.00000000       0.00000000 </v>
     <v>      -7.24552173      12.54961177       0.00000000 </v>
     <v>       0.00000000       0.00000000      20.00000000 </v>
    </varray>
    <i name="volume">   3637.13939117 </i>
    <varray name="rec_basis" >
     <v>       0.06900814       0.03984187       0.00000000 </v>
     <v>       0.00000000       0.07968374       0.00000000 </v>
     <v>       0.00000000       0.00000000       0.05000000 </v>
    </varray>
   </crystal>
   <varray name="positions" >
    <v>       0.44325464       0.22162732       0.51277768 </v>
    <v>       0.38861826       0.19430913       0.57426478 </v>
    <v>       0.44887017       0.22443508       0.63967091 </v>
    <v>       0.38994194       0.19497097       0.45106518 </v>
    <v>       0.44978015       0.22489008       0.38569241 </v>
    <v>       0.56220829       0.28110415       0.51302302 </v>
    <v>       0.71889585       0.43779171       0.51302302 </v>
    <v>       0.71889585       0.28110415       0.51302302 </v>
    <v>       0.94779203       0.89558406       0.51202670 </v>
    <v>       0.10441594       0.05220797       0.51202670 </v>
    <v>       0.94779203       0.05220797       0.51202670 </v>
    <v>       0.77837268       0.22162732       0.51277768 </v>
    <v>       0.80569087       0.19430913       0.57426478 </v>
    <v>       0.86172784       0.13827216       0.57361301 </v>
    <v>       0.88836011       0.11163989       0.51174300 </v>
    <v>       0.89421461       0.10578539       0.63716424 </v>
    <v>       0.77556492       0.22443508       0.63967091 </v>
    <v>       0.77837268       0.55674536       0.51277768 </v>
    <v>       0.80569087       0.61138174       0.57426478 </v>
    <v>       0.86172784       0.72345569       0.57361301 </v>
    <v>       0.88836011       0.77672022       0.51174300 </v>
    <v>       0.89421461       0.78842923       0.63716424 </v>
    <v>       0.77556492       0.55112983       0.63967091 </v>
    <v>       0.27654431       0.13827216       0.57361301 </v>
    <v>       0.22327978       0.11163989       0.51174300 </v>
    <v>       0.21157077       0.10578539       0.63716424 </v>
    <v>       0.86117384       0.13882616       0.45052744 </v>
    <v>       0.80502903       0.19497097       0.45106518 </v>
    <v>       0.89061739       0.10938261       0.38484996 </v>
    <v>       0.77510992       0.22489008       0.38569241 </v>
    <v>       0.86117384       0.72234769       0.45052744 </v>
    <v>       0.80502903       0.61005806       0.45106518 </v>
    <v>       0.89061739       0.78123477       0.38484996 </v>
    <v>       0.77510992       0.55021985       0.38569241 </v>
    <v>       0.27765231       0.13882616       0.45052744 </v>
    <v>       0.21876523       0.10938261       0.38484996 </v>
    <v>       0.61175098       0.38824902       0.51299532 </v>
    <v>       0.61175098       0.22350196       0.51299532 </v>
    <v>       0.77649804       0.38824902       0.51299532 </v>
    <v>       0.05487914       0.94512086       0.51220236 </v>
    <v>       0.05487914       0.10975829       0.51220236 </v>
    <v>       0.89024171       0.94512086       0.51220236 </v>
    <v>       0.42939342       0.15348600       0.66984570 </v>
    <v>       0.42939342       0.27590741       0.66984570 </v>
    <v>       0.42947125       0.27574790       0.35544967 </v>
    <v>       0.42947125       0.15372335       0.35544967 </v>
    <v>       0.53536819       0.26768410       0.63219541 </v>
    <v>       0.53635213       0.26817606       0.39268918 </v>
    <v>       0.73231590       0.26768410       0.63219541 </v>
    <v>       0.72409259       0.15348600       0.66984570 </v>
    <v>       0.73231590       0.46463181       0.63219541 </v>
    <v>       0.72409259       0.57060658       0.66984570 </v>
    <v>       0.73182394       0.26817606       0.39268918 </v>
    <v>       0.72425210       0.15372335       0.35544967 </v>
    <v>       0.73182394       0.46364787       0.39268918 </v>
    <v>       0.72425210       0.57052875       0.35544967 </v>
    <v>       0.86944959       0.13055041       0.68220363 </v>
    <v>       0.98131444       0.14074156       0.63940308 </v>
    <v>       0.85925844       0.01868556       0.63940308 </v>
    <v>       0.84651400       0.27590741       0.66984570 </v>
    <v>       0.86944959       0.73889918       0.68220363 </v>
    <v>       0.85925844       0.84057288       0.63940308 </v>
    <v>       0.98131444       0.84057288       0.63940308 </v>
    <v>       0.84651400       0.57060658       0.66984570 </v>
    <v>       0.26110082       0.13055041       0.68220363 </v>
    <v>       0.15942712       0.01868556       0.63940308 </v>
    <v>       0.15942712       0.14074156       0.63940308 </v>
    <v>       0.93394621       0.06605379       0.39152413 </v>
    <v>       0.94133245       0.18072346       0.35472082 </v>
    <v>       0.81927654       0.05866755       0.35472082 </v>
    <v>       0.84627665       0.27574790       0.35544967 </v>
    <v>       0.93394621       0.86789241       0.39152413 </v>
    <v>       0.81927654       0.76060899       0.35472082 </v>
    <v>       0.94133245       0.76060899       0.35472082 </v>
    <v>       0.84627665       0.57052875       0.35544967 </v>
    <v>       0.13210759       0.06605379       0.39152413 </v>
    <v>       0.23939101       0.05866755       0.35472082 </v>
    <v>       0.23939101       0.18072346       0.35472082 </v>
   </varray>
  </structure>
  <varray name="forces" >
   <v>       0.00217127       0.00125358      -0.00038258 </v>
   <v>       0.00396513       0.00228927      -0.00136149 </v>
   <v>      -0.00183208      -0.00105775      -0.00246420 </v>
   <v>       0.00203791       0.00117659       0.00107289 </v>
   <v>      -0.00141389      -0.00081631       0.00406383 </v>
   <v>       0.00033550       0.00019370      -0.00630927 </v>
   <v>       0.00000000      -0.00038740      -0.00630927 </v>
   <v>      -0.00033550       0.00019370      -0.00630927 </v>
   <v>       0.00000000      -0.00187923       0.00246535 </v>
   <v>       0.00162746       0.00093962       0.00246535 </v>
   <v>      -0.00162746       0.00093962       0.00246535 </v>
   <v>      -0.00217127       0.00125358      -0.00038258 </v>
   <v>      -0.00396513       0.00228927      -0.00136149 </v>
   <v>       0.00113142      -0.00065323       0.00092214 </v>
   <v>       0.00174144      -0.00100542       0.00496336 </v>
   <v>      -0.00254593       0.00146990      -0.00385211 </v>
   <v>       0.00183208      -0.00105775      -0.00246420 </v>
   <v>      -0.00000000      -0.00250716      -0.00038258 </v>
   <v>       0.00000000      -0.00457854      -0.00136149 </v>
   <v>       0.00000000       0.00130645       0.00092214 </v>
   <v>       0.00000000       0.00201084       0.00496336 </v>
   <v>      -0.00000000      -0.00293979      -0.00385211 </v>
   <v>       0.00000000       0.00211550      -0.00246420 </v>
   <v>      -0.00113142      -0.00065323       0.00092214 </v>
   <v>      -0.00174144      -0.00100542       0.00496336 </v>
   <v>       0.00254593       0.00146990      -0.00385211 </v>
   <v>      -0.00185647       0.00107183       0.00332614 </v>
   <v>      -0.00203791       0.00117659       0.00107289 </v>
   <v>      -0.00176572       0.00101944      -0.00014121 </v>
   <v>       0.00141389      -0.00081631       0.00406383 </v>
   <v>       0.00000000      -0.00214366       0.00332614 </v>
   <v>       0.00000000      -0.00235318       0.00107289 </v>
   <v>       0.00000000      -0.00203887      -0.00014121 </v>
   <v>       0.00000000       0.00163262       0.00406383 </v>
   <v>       0.00185647       0.00107183       0.00332614 </v>
   <v>       0.00176572       0.00101944      -0.00014121 </v>
   <v>      -0.00362450       0.00209261       0.00250513 </v>
   <v>       0.00000000      -0.00418522       0.00250513 </v>
   <v>       0.00362450       0.00209261       0.00250513 </v>
   <v>      -0.00150596       0.00086947      -0.00854544 </v>
   <v>       0.00000000      -0.00173894      -0.00854544 </v>
   <v>       0.00150596       0.00086947      -0.00854544 </v>
   <v>       0.00188436       0.00214698       0.00359076 </v>
   <v>       0.00280152       0.00055842       0.00359076 </v>
   <v>       0.00151207       0.00097754       0.00214883 </v>
   <v>       0.00160260       0.00082072       0.00214883 </v>
   <v>      -0.00329532      -0.00190255      -0.00519043 </v>
   <v>       0.00344165       0.00198704       0.00042065 </v>
   <v>       0.00329532      -0.00190255      -0.00519043 </v>
   <v>      -0.00188436       0.00214698       0.00359076 </v>
   <v>       0.00000000       0.00380510      -0.00519043 </v>
   <v>       0.00091716      -0.00270539       0.00359076 </v>
   <v>      -0.00344165       0.00198704       0.00042065 </v>
   <v>      -0.00160260       0.00082072       0.00214883 </v>
   <v>      -0.00000000      -0.00397408       0.00042065 </v>
   <v>      -0.00009054      -0.00179826       0.00214883 </v>
   <v>       0.00181176      -0.00104602      -0.00199738 </v>
   <v>      -0.00182693       0.00444136       0.00280199 </v>
   <v>      -0.00475980      -0.00063852       0.00280199 </v>
   <v>      -0.00280152       0.00055842       0.00359076 </v>
   <v>       0.00000000       0.00209204      -0.00199738 </v>
   <v>      -0.00293287      -0.00380285       0.00280199 </v>
   <v>       0.00293287      -0.00380285       0.00280199 </v>
   <v>      -0.00091716      -0.00270539       0.00359076 </v>
   <v>      -0.00181176      -0.00104602      -0.00199738 </v>
   <v>       0.00475980      -0.00063852       0.00280199 </v>
   <v>       0.00182693       0.00444136       0.00280199 </v>
   <v>       0.00024885      -0.00014367      -0.00321783 </v>
   <v>      -0.00102065      -0.00018088      -0.00168035 </v>
   <v>      -0.00035368       0.00097435      -0.00168035 </v>
   <v>      -0.00151207       0.00097754       0.00214883 </v>
   <v>       0.00000000       0.00028735      -0.00321783 </v>
   <v>       0.00066697      -0.00079347      -0.00168035 </v>
   <v>      -0.00066697      -0.00079347      -0.00168035 </v>
   <v>       0.00009054      -0.00179826       0.00214883 </v>
   <v>      -0.00024885      -0.00014367      -0.00321783 </v>
   <v>       0.00035368       0.00097435      -0.00168035 </v>
   <v>       0.00102065      -0.00018088      -0.00168035 </v>
  </varray>
  <varray name="stress" >
   <v>      -0.05067212       0.00000000       0.00000000 </v>
   <v>       0.00000000      -0.05067212      -0.00000000 </v>
   <v>       0.00000000       0.00000000      -0.46244874 </v>
  </varray>
  <energy>
   <i name="e_fr_energy">   -508.79459911 </i>
   <i name="e_wo_entrp">   -508.79459911 </i>
   <i name="e_0_energy">     -0.00000000 </i>
  </energy>
  <time name="totalsc">  252.45  254.74</time>
  <eigenvalues>
   <array>
    <dimension dim="1">band</dimension>
    <dimension dim="2">kpoint</dimension>
    <dimension dim="3">spin</dimension>
    <field>eigene</field>
    <field>occ</field>
    <set>
     <set comment="spin 1">
      <set comment="kpoint 1">
       <r>  -24.6834    1.0000 </r>
       <r>  -24.6564    1.0000 </r>
       <r>  -21.7563    1.0000 </r>
       <r>  -21.7563    1.0000 </r>
       <r>  -21.6481    1.0000 </r>
       <r>  -21.6481    1.0000 </r>
       <r>  -20.5768    1.0000 </r>
       <r>  -20.4602    1.0000 </r>
       <r>  -20.4601    1.0000 </r>
       <r>  -18.9071    1.0000 </r>
       <r>  -18.8961    1.0000 </r>
       <r>  -18.8960    1.0000 </r>
       <r>  -18.6146    1.0000 </r>
       <r>  -18.6145    1.0000 </r>
       <r>  -18.3643    1.0000 </r>
       <r>  -17.1188    1.0000 </r>
       <r>  -17.0796    1.0000 </r>
       <r>  -17.0795    1.0000 </r>
       <r>  -16.9472    1.0000 </r>
       <r>  -16.9472    1.0000 </r>
       <r>  -16.7328    1.0000 </r>
       <r>  -16.2468    1.0000 </r>
       <r>  -16.2467    1.0000 </r>
       <r>  -16.1994    1.0000 </r>
       <r>  -16.1994    1.0000 </r>
       <r>  -15.8006    1.0000 </r>
       <r>  -14.8420    1.0000 </r>
       <r>  -14.8069    1.0000 </r>
       <r>  -14.8068    1.0000 </r>
       <r>  -14.6714    1.0000 </r>
       <r>  -14.5446    1.0000 </r>
       <r>  -14.5445    1.0000 </r>
       <r>  -12.8109    1.0000 </r>
       <r>  -12.7677    1.0000 </r>
       <r>  -12.7477    1.0000 </r>
       <r>  -12.6736    1.0000 </r>
       <r>  -12.6735    1.0000 </r>
       <r>  -12.6630    1.0000 </r>
       <r>  -12.6629    1.0000 </r>
       <r>  -11.9035    1.0000 </r>
       <r>  -11.5237    1.0000 </r>
       <r>  -11.4446    1.0000 </r>
       <r>  -11.4446    1.0000 </r>
       <r>  -11.2753    1.0000 </r>
       <r>  -10.5410    1.0000 </r>
       <r>  -10.5409    1.0000 </r>
       <r>  -10.4284    1.0000 </r>
       <r>   -9.8656    1.0000 </r>
       <r>   -9.8655    1.0000 </r>
       <r>   -9.6790    1.0000 </r>
       <r>   -9.4929    1.0000 </r>
       <r>   -9.4863    1.0000 </r>
       <r>   -9.4863    1.0000 </r>
       <r>   -9.4207    1.0000 </r>
       <r>   -9.4008    1.0000 </r>
       <r>   -9.4008    1.0000 </r>
       <r>   -9.3630    1.0000 </r>
       <r>   -9.1642    1.0000 </r>
       <r>   -9.1642    1.0000 </r>
       <r>   -8.9926    1.0000 </r>
       <r>   -8.9094    1.0000 </r>
       <r>   -8.9093    1.0000 </r>
       <r>   -8.7463    1.0000 </r>
       <r>   -8.7319    1.0000 </r>
       <r>   -8.7318    1.0000 </r>
       <r>   -8.7014    1.0000 </r>
       <r>   -8.7013    1.0000 </r>
       <r>   -8.6826    1.0000 </r>
       <r>   -8.6826    1.0000 </r>
       <r>   -8.6463    1.0000 </r>
       <r>   -8.6429    1.0000 </r>
       <r>   -8.5988    1.0000 </r>
       <r>   -8.5987    1.0000 </r>
       <r>   -8.4739    1.0000 </r>
       <r>   -8.4467    1.0000 </r>
       <r>   -8.2244    1.0000 </r>
       <r>   -8.2244    1.0000 </r>
       <r>   -8.1601    1.0000 </r>
       <r>   -8.1205    1.0000 </r>
       <r>   -7.9687    1.0000 </r>
       <r>   -7.9687    1.0000 </r>
       <r>   -7.8190    1.0000 </r>
       <r>   -7.2043    1.0000 </r>
       <r>   -7.2043    1.0000 </r>
       <r>   -7.1423    1.0000 </r>
       <r>   -7.1423    1.0000 </r>
       <r>   -7.1110    1.0000 </r>
       <r>   -7.1110    1.0000 </r>
       <r>   -7.1071    1.0000 </r>
       <r>   -7.0214    1.0000 </r>
       <r>   -7.0014    1.0000 </r>
       <r>   -6.9785    1.0000 </r>
       <r>   -6.9784    1.0000 </r>
       <r>   -6.6874    1.0000 </r>
       <r>   -6.6873    1.0000 </r>
       <r>   -5.2197    1.0000 </r>
       <r>   -5.2196    1.0000 </r>
       <r>   -5.1541    1.0000 </r>
       <r>   -5.1541    1.0000 </r>
       <r>   -4.8774    1.0000 </r>
       <r>   -4.8773    1.0000 </r>
       <r>   -4.7882    1.0000 </r>
       <r>   -4.6595    1.0000 </r>
       <r>   -4.6594    1.0000 </r>
       <r>   -4.6207    1.0000 </r>
       <r>   -1.4207    0.0000 </r>
       <r>   -1.4207    0.0000 </r>
       <r>   -1.4095    0.0000 </r>
       <r>   -1.4095    0.0000 </r>
       <r>   -0.2810    0.0000 </r>
       <r>   -0.2809    0.0000 </r>
       <r>   -0.0275    0.0000 </r>
       <r>   -0.0274    0.0000 </r>
       <r>   -0.0197    0.0000 </r>
       <r>    0.0239    0.0000 </r>
       <r>    0.1784    0.0000 </r>
       <r>    0.2291    0.0000 </r>
       <r>    0.8492    0.0000 </r>
       <r>    0.8838    0.0000 </r>
       <r>    0.8839    0.0000 </r>
       <r>    0.9297    0.0000 </r>
       <r>    0.9644    0.0000 </r>
       <r>    1.0862    0.0000 </r>
       <r>    1.0863    0.0000 </r>
       <r>    1.1949    0.0000 </r>
       <r>    1.1950    0.0000 </r>
       <r>    1.2852    0.0000 </r>
       <r>    1.3674    0.0000 </r>
       <r>    1.3674    0.0000 </r>
       <r>    1.5262    0.0000 </r>
       <r>    1.7556    0.0000 </r>
       <r>    1.8012    0.0000 </r>
       <r>    1.8299    0.0000 </r>
       <r>    1.8305    0.0000 </r>
       <r>    1.9024    0.0000 </r>
       <r>    1.9727    0.0000 </r>
       <r>    1.9988    0.0000 </r>
       <r>    1.9995    0.0000 </r>
       <r>    2.2410    0.0000 </r>
       <r>    2.3060    0.0000 </r>
       <r>    2.3537    0.0000 </r>
       <r>    2.3693    0.0000 </r>
       <r>    2.3695    0.0000 </r>
       <r>    2.4782    0.0000 </r>
       <r>    2.4786    0.0000 </r>
       <r>    2.5116    0.0000 </r>
       <r>    2.5307    0.0000 </r>
       <r>    2.5326    0.0000 </r>
       <r>    2.5329    0.0000 </r>
       <r>    2.5384    0.0000 </r>
       <r>    2.5804    0.0000 </r>
       <r>    2.6092    0.0000 </r>
       <r>    2.6794    0.0000 </r>
       <r>    2.6796    0.0000 </r>
       <r>    2.7110    0.0000 </r>
       <r>    2.8497    0.0000 </r>
       <r>    2.8813    0.0000 </r>
       <r>    2.8816    0.0000 </r>
       <r>    2.8854    0.0000 </r>
       <r>    2.8854    0.0000 </r>
      </set>
      <set comment="kpoint 2">
       <r>  -24.6834    1.0000 </r>
       <r>  -24.6564    1.0000 </r>
       <r>  -21.7563    1.0000 </r>
       <r>  -21.7562    1.0000 </r>
       <r>  -21.6483    1.0000 </r>
       <r>  -21.6481    1.0000 </r>
       <r>  -20.5766    1.0000 </r>
       <r>  -20.4603    1.0000 </r>
       <r>  -20.4602    1.0000 </r>
       <r>  -18.9071    1.0000 </r>
       <r>  -18.8961    1.0000 </r>
       <r>  -18.8960    1.0000 </r>
       <r>  -18.6146    1.0000 </r>
       <r>  -18.6142    1.0000 </r>
       <r>  -18.3647    1.0000 </r>
       <r>  -17.1187    1.0000 </r>
       <r>  -17.0796    1.0000 </r>
       <r>  -17.0795    1.0000 </r>
       <r>  -16.9472    1.0000 </r>
       <r>  -16.9466    1.0000 </r>
       <r>  -16.7329    1.0000 </r>
       <r>  -16.2468    1.0000 </r>
       <r>  -16.2468    1.0000 </r>
       <r>  -16.1995    1.0000 </r>
       <r>  -16.1994    1.0000 </r>
       <r>  -15.7998    1.0000 </r>
       <r>  -14.8420    1.0000 </r>
       <r>  -14.8069    1.0000 </r>
       <r>  -14.8068    1.0000 </r>
       <r>  -14.6903    1.0000 </r>
       <r>  -14.5446    1.0000 </r>
       <r>  -14.5248    1.0000 </r>
       <r>  -12.8108    1.0000 </r>
       <r>  -12.7677    1.0000 </r>
       <r>  -12.7476    1.0000 </r>
       <r>  -12.6738    1.0000 </r>
       <r>  -12.6735    1.0000 </r>
       <r>  -12.6658    1.0000 </r>
       <r>  -12.6630    1.0000 </r>
       <r>  -11.9030    1.0000 </r>
       <r>  -11.5221    1.0000 </r>
       <r>  -11.4457    1.0000 </r>
       <r>  -11.4446    1.0000 </r>
       <r>  -11.2753    1.0000 </r>
       <r>  -10.5410    1.0000 </r>
       <r>  -10.5399    1.0000 </r>
       <r>  -10.4269    1.0000 </r>
       <r>   -9.8657    1.0000 </r>
       <r>   -9.8651    1.0000 </r>
       <r>   -9.6792    1.0000 </r>
       <r>   -9.4985    1.0000 </r>
       <r>   -9.4863    1.0000 </r>
       <r>   -9.4829    1.0000 </r>
       <r>   -9.4257    1.0000 </r>
       <r>   -9.4010    1.0000 </r>
       <r>   -9.3970    1.0000 </r>
       <r>   -9.3631    1.0000 </r>
       <r>   -9.1648    1.0000 </r>
       <r>   -9.1642    1.0000 </r>
       <r>   -8.9921    1.0000 </r>
       <r>   -8.9093    1.0000 </r>
       <r>   -8.9092    1.0000 </r>
       <r>   -8.7465    1.0000 </r>
       <r>   -8.7333    1.0000 </r>
       <r>   -8.7319    1.0000 </r>
       <r>   -8.7016    1.0000 </r>
       <r>   -8.7015    1.0000 </r>
       <r>   -8.6821    1.0000 </r>
       <r>   -8.6815    1.0000 </r>
       <r>   -8.6456    1.0000 </r>
       <r>   -8.6429    1.0000 </r>
       <r>   -8.5988    1.0000 </r>
       <r>   -8.5987    1.0000 </r>
       <r>   -8.4734    1.0000 </r>
       <r>   -8.4446    1.0000 </r>
       <r>   -8.2247    1.0000 </r>
       <r>   -8.2244    1.0000 </r>
       <r>   -8.1606    1.0000 </r>
       <r>   -8.1203    1.0000 </r>
       <r>   -7.9687    1.0000 </r>
       <r>   -7.9687    1.0000 </r>
       <r>   -7.8196    1.0000 </r>
       <r>   -7.2044    1.0000 </r>
       <r>   -7.2044    1.0000 </r>
       <r>   -7.1444    1.0000 </r>
       <r>   -7.1442    1.0000 </r>
       <r>   -7.1113    1.0000 </r>
       <r>   -7.1091    1.0000 </r>
       <r>   -7.1045    1.0000 </r>
       <r>   -7.0236    1.0000 </r>
       <r>   -7.0012    1.0000 </r>
       <r>   -6.9784    1.0000 </r>
       <r>   -6.9760    1.0000 </r>
       <r>   -6.6876    1.0000 </r>
       <r>   -6.6873    1.0000 </r>
       <r>   -5.2204    1.0000 </r>
       <r>   -5.2199    1.0000 </r>
       <r>   -5.1537    1.0000 </r>
       <r>   -5.1534    1.0000 </r>
       <r>   -4.8775    1.0000 </r>
       <r>   -4.8773    1.0000 </r>
       <r>   -4.7884    1.0000 </r>
       <r>   -4.6595    1.0000 </r>
       <r>   -4.6593    1.0000 </r>
       <r>   -4.6208    1.0000 </r>
       <r>   -1.4209    0.0000 </r>
       <r>   -1.4208    0.0000 </r>
       <r>   -1.4094    0.0000 </r>
       <r>   -1.4094    0.0000 </r>
       <r>   -0.2810    0.0000 </r>
       <r>   -0.2804    0.0000 </r>
       <r>   -0.0282    0.0000 </r>
       <r>   -0.0275    0.0000 </r>
       <r>   -0.0189    0.0000 </r>
       <r>    0.0246    0.0000 </r>
       <r>    0.1777    0.0000 </r>
       <r>    0.2297    0.0000 </r>
       <r>    0.8296    0.0000 </r>
       <r>    0.8827    0.0000 </r>
       <r>    0.9014    0.0000 </r>
       <r>    0.9266    0.0000 </r>
       <r>    0.9630    0.0000 </r>
       <r>    1.0848    0.0000 </r>
       <r>    1.0916    0.0000 </r>
       <r>    1.1921    0.0000 </r>
       <r>    1.1973    0.0000 </r>
       <r>    1.2903    0.0000 </r>
       <r>    1.3671    0.0000 </r>
       <r>    1.3699    0.0000 </r>
       <r>    1.5282    0.0000 </r>
       <r>    1.7563    0.0000 </r>
       <r>    1.7984    0.0000 </r>
       <r>    1.8207    0.0000 </r>
       <r>    1.8271    0.0000 </r>
       <r>    1.9112    0.0000 </r>
       <r>    1.9632    0.0000 </r>
       <r>    2.0034    0.0000 </r>
       <r>    2.0134    0.0000 </r>
       <r>    2.2418    0.0000 </r>
       <r>    2.3006    0.0000 </r>
       <r>    2.3492    0.0000 </r>
       <r>    2.3695    0.0000 </r>
       <r>    2.3725    0.0000 </r>
       <r>    2.4730    0.0000 </r>
       <r>    2.4767    0.0000 </r>
       <r>    2.5078    0.0000 </r>
       <r>    2.5289    0.0000 </r>
       <r>    2.5323    0.0000 </r>
       <r>    2.5350    0.0000 </r>
       <r>    2.5375    0.0000 </r>
       <r>    2.5779    0.0000 </r>
       <r>    2.6077    0.0000 </r>
       <r>    2.6831    0.0000 </r>
       <r>    2.6836    0.0000 </r>
       <r>    2.7171    0.0000 </r>
       <r>    2.8526    0.0000 </r>
       <r>    2.8803    0.0000 </r>
       <r>    2.8816    0.0000 </r>
       <r>    2.8941    0.0000 </r>
       <r>    3.0171    0.0000 </r>
      </set>
      <set comment="kpoint 3">
       <r>  -24.6834    1.0000 </r>
       <r>  -24.6564    1.0000 </r>
       <r>  -21.7563    1.0000 </r>
       <r>  -21.7558    1.0000 </r>
       <r>  -21.6488    1.0000 </r>
       <r>  -21.6481    1.0000 </r>
       <r>  -20.5761    1.0000 </r>
       <r>  -20.4608    1.0000 </r>
       <r>  -20.4602    1.0000 </r>
       <r>  -18.9071    1.0000 </r>
       <r>  -18.8961    1.0000 </r>
       <r>  -18.8960    1.0000 </r>
       <r>  -18.6146    1.0000 </r>
       <r>  -18.6133    1.0000 </r>
       <r>  -18.3662    1.0000 </r>
       <r>  -17.1185    1.0000 </r>
       <r>  -17.0797    1.0000 </r>
       <r>  -17.0796    1.0000 </r>
       <r>  -16.9472    1.0000 </r>
       <r>  -16.9450    1.0000 </r>
       <r>  -16.7333    1.0000 </r>
       <r>  -16.2469    1.0000 </r>
       <r>  -16.2468    1.0000 </r>
       <r>  -16.1999    1.0000 </r>
       <r>  -16.1994    1.0000 </r>
       <r>  -15.7975    1.0000 </r>
       <r>  -14.8422    1.0000 </r>
       <r>  -14.8073    1.0000 </r>
       <r>  -14.8069    1.0000 </r>
       <r>  -14.7299    1.0000 </r>
       <r>  -14.5446    1.0000 </r>
       <r>  -14.4827    1.0000 </r>
       <r>  -12.8108    1.0000 </r>
       <r>  -12.7678    1.0000 </r>
       <r>  -12.7473    1.0000 </r>
       <r>  -12.6767    1.0000 </r>
       <r>  -12.6736    1.0000 </r>
       <r>  -12.6724    1.0000 </r>
       <r>  -12.6630    1.0000 </r>
       <r>  -11.9014    1.0000 </r>
       <r>  -11.5173    1.0000 </r>
       <r>  -11.4489    1.0000 </r>
       <r>  -11.4446    1.0000 </r>
       <r>  -11.2752    1.0000 </r>
       <r>  -10.5412    1.0000 </r>
       <r>  -10.5369    1.0000 </r>
       <r>  -10.4222    1.0000 </r>
       <r>   -9.8661    1.0000 </r>
       <r>   -9.8638    1.0000 </r>
       <r>   -9.6796    1.0000 </r>
       <r>   -9.5084    1.0000 </r>
       <r>   -9.4864    1.0000 </r>
       <r>   -9.4802    1.0000 </r>
       <r>   -9.4354    1.0000 </r>
       <r>   -9.4017    1.0000 </r>
       <r>   -9.3902    1.0000 </r>
       <r>   -9.3634    1.0000 </r>
       <r>   -9.1665    1.0000 </r>
       <r>   -9.1641    1.0000 </r>
       <r>   -8.9904    1.0000 </r>
       <r>   -8.9092    1.0000 </r>
       <r>   -8.9089    1.0000 </r>
       <r>   -8.7474    1.0000 </r>
       <r>   -8.7373    1.0000 </r>
       <r>   -8.7320    1.0000 </r>
       <r>   -8.7022    1.0000 </r>
       <r>   -8.7019    1.0000 </r>
       <r>   -8.6809    1.0000 </r>
       <r>   -8.6784    1.0000 </r>
       <r>   -8.6436    1.0000 </r>
       <r>   -8.6427    1.0000 </r>
       <r>   -8.5989    1.0000 </r>
       <r>   -8.5987    1.0000 </r>
       <r>   -8.4720    1.0000 </r>
       <r>   -8.4382    1.0000 </r>
       <r>   -8.2257    1.0000 </r>
       <r>   -8.2243    1.0000 </r>
       <r>   -8.1622    1.0000 </r>
       <r>   -8.1196    1.0000 </r>
       <r>   -7.9687    1.0000 </r>
       <r>   -7.9686    1.0000 </r>
       <r>   -7.8214    1.0000 </r>
       <r>   -7.2048    1.0000 </r>
       <r>   -7.2047    1.0000 </r>
       <r>   -7.1497    1.0000 </r>
       <r>   -7.1491    1.0000 </r>
       <r>   -7.1116    1.0000 </r>
       <r>   -7.1045    1.0000 </r>
       <r>   -7.0987    1.0000 </r>
       <r>   -7.0290    1.0000 </r>
       <r>   -7.0007    1.0000 </r>
       <r>   -6.9785    1.0000 </r>
       <r>   -6.9697    1.0000 </r>
       <r>   -6.6884    1.0000 </r>
       <r>   -6.6873    1.0000 </r>
       <r>   -5.2224    1.0000 </r>
       <r>   -5.2207    1.0000 </r>
       <r>   -5.1525    1.0000 </r>
       <r>   -5.1515    1.0000 </r>
       <r>   -4.8776    1.0000 </r>
       <r>   -4.8772    1.0000 </r>
       <r>   -4.7890    1.0000 </r>
       <r>   -4.6595    1.0000 </r>
       <r>   -4.6593    1.0000 </r>
       <r>   -4.6209    1.0000 </r>
       <r>   -1.4213    0.0000 </r>
       <r>   -1.4210    0.0000 </r>
       <r>   -1.4091    0.0000 </r>
       <r>   -1.4090    0.0000 </r>
       <r>   -0.2810    0.0000 </r>
       <r>   -0.2786    0.0000 </r>
       <r>   -0.0300    0.0000 </r>
       <r>   -0.0276    0.0000 </r>
       <r>   -0.0172    0.0000 </r>
       <r>    0.0265    0.0000 </r>
       <r>    0.1754    0.0000 </r>
       <r>    0.2315    0.0000 </r>
       <r>    0.7984    0.0000 </r>
       <r>    0.8792    0.0000 </r>
       <r>    0.9085    0.0000 </r>
       <r>    0.9343    0.0000 </r>
       <r>    0.9615    0.0000 </r>
       <r>    1.0808    0.0000 </r>
       <r>    1.1053    0.0000 </r>
       <r>    1.1853    0.0000 </r>
       <r>    1.2043    0.0000 </r>
       <r>    1.3037    0.0000 </r>
       <r>    1.3668    0.0000 </r>
       <r>    1.3772    0.0000 </r>
       <r>    1.5339    0.0000 </r>
       <r>    1.7577    0.0000 </r>
       <r>    1.7814    0.0000 </r>
       <r>    1.8111    0.0000 </r>
       <r>    1.8188    0.0000 </r>
       <r>    1.9243    0.0000 </r>
       <r>    1.9554    0.0000 </r>
       <r>    2.0149    0.0000 </r>
       <r>    2.0393    0.0000 </r>
       <r>    2.2441    0.0000 </r>
       <r>    2.2870    0.0000 </r>
       <r>    2.3376    0.0000 </r>
       <r>    2.3679    0.0000 </r>
       <r>    2.3788    0.0000 </r>
       <r>    2.4574    0.0000 </r>
       <r>    2.4723    0.0000 </r>
       <r>    2.4996    0.0000 </r>
       <r>    2.5230    0.0000 </r>
       <r>    2.5289    0.0000 </r>
       <r>    2.5373    0.0000 </r>
       <r>    2.5387    0.0000 </r>
       <r>    2.5732    0.0000 </r>
       <r>    2.6039    0.0000 </r>
       <r>    2.6901    0.0000 </r>
       <r>    2.6911    0.0000 </r>
       <r>    2.7332    0.0000 </r>
       <r>    2.8524    0.0000 </r>
       <r>    2.8705    0.0000 </r>
       <r>    2.8755    0.0000 </r>
       <r>    2.8951    0.0000 </r>
       <r>    3.0061    0.0000 </r>
      </set>
      <set comment="kpoint 4">
       <r>  -24.6834    1.0000 </r>
       <r>  -24.6565    1.0000 </r>
       <r>  -21.7563    1.0000 </r>
       <r>  -21.7551    1.0000 </r>
       <r>  -21.6497    1.0000 </r>
       <r>  -21.6481    1.0000 </r>
       <r>  -20.5751    1.0000 </r>
       <r>  -20.4615    1.0000 </r>
       <r>  -20.4602    1.0000 </r>
       <r>  -18.9070    1.0000 </r>
       <r>  -18.8962    1.0000 </r>
       <r>  -18.8960    1.0000 </r>
       <r>  -18.6146    1.0000 </r>
       <r>  -18.6118    1.0000 </r>
       <r>  -18.3686    1.0000 </r>
       <r>  -17.1182    1.0000 </r>
       <r>  -17.0800    1.0000 </r>
       <r>  -17.0796    1.0000 </r>
       <r>  -16.9472    1.0000 </r>
       <r>  -16.9422    1.0000 </r>
       <r>  -16.7341    1.0000 </r>
       <r>  -16.2470    1.0000 </r>
       <r>  -16.2468    1.0000 </r>
       <r>  -16.2006    1.0000 </r>
       <r>  -16.1994    1.0000 </r>
       <r>  -15.7936    1.0000 </r>
       <r>  -14.8428    1.0000 </r>
       <r>  -14.8084    1.0000 </r>
       <r>  -14.8069    1.0000 </r>
       <r>  -14.7742    1.0000 </r>
       <r>  -14.5445    1.0000 </r>
       <r>  -14.4333    1.0000 </r>
       <r>  -12.8107    1.0000 </r>
       <r>  -12.7679    1.0000 </r>
       <r>  -12.7468    1.0000 </r>
       <r>  -12.6905    1.0000 </r>
       <r>  -12.6741    1.0000 </r>
       <r>  -12.6736    1.0000 </r>
       <r>  -12.6631    1.0000 </r>
       <r>  -11.8988    1.0000 </r>
       <r>  -11.5095    1.0000 </r>
       <r>  -11.4541    1.0000 </r>
       <r>  -11.4446    1.0000 </r>
       <r>  -11.2751    1.0000 </r>
       <r>  -10.5414    1.0000 </r>
       <r>  -10.5319    1.0000 </r>
       <r>  -10.4145    1.0000 </r>
       <r>   -9.8669    1.0000 </r>
       <r>   -9.8616    1.0000 </r>
       <r>   -9.6803    1.0000 </r>
       <r>   -9.5205    1.0000 </r>
       <r>   -9.4867    1.0000 </r>
       <r>   -9.4821    1.0000 </r>
       <r>   -9.4446    1.0000 </r>
       <r>   -9.4028    1.0000 </r>
       <r>   -9.3836    1.0000 </r>
       <r>   -9.3639    1.0000 </r>
       <r>   -9.1693    1.0000 </r>
       <r>   -9.1640    1.0000 </r>
       <r>   -8.9878    1.0000 </r>
       <r>   -8.9091    1.0000 </r>
       <r>   -8.9083    1.0000 </r>
       <r>   -8.7486    1.0000 </r>
       <r>   -8.7435    1.0000 </r>
       <r>   -8.7324    1.0000 </r>
       <r>   -8.7029    1.0000 </r>
       <r>   -8.7024    1.0000 </r>
       <r>   -8.6792    1.0000 </r>
       <r>   -8.6743    1.0000 </r>
       <r>   -8.6423    1.0000 </r>
       <r>   -8.6400    1.0000 </r>
       <r>   -8.5991    1.0000 </r>
       <r>   -8.5987    1.0000 </r>
       <r>   -8.4700    1.0000 </r>
       <r>   -8.4279    1.0000 </r>
       <r>   -8.2272    1.0000 </r>
       <r>   -8.2242    1.0000 </r>
       <r>   -8.1648    1.0000 </r>
       <r>   -8.1185    1.0000 </r>
       <r>   -7.9688    1.0000 </r>
       <r>   -7.9686    1.0000 </r>
       <r>   -7.8243    1.0000 </r>
       <r>   -7.2055    1.0000 </r>
       <r>   -7.2052    1.0000 </r>
       <r>   -7.1562    1.0000 </r>
       <r>   -7.1552    1.0000 </r>
       <r>   -7.1116    1.0000 </r>
       <r>   -7.0987    1.0000 </r>
       <r>   -7.0917    1.0000 </r>
       <r>   -7.0356    1.0000 </r>
       <r>   -6.9998    1.0000 </r>
       <r>   -6.9785    1.0000 </r>
       <r>   -6.9613    1.0000 </r>
       <r>   -6.6897    1.0000 </r>
       <r>   -6.6873    1.0000 </r>
       <r>   -5.2255    1.0000 </r>
       <r>   -5.2220    1.0000 </r>
       <r>   -5.1506    1.0000 </r>
       <r>   -5.1486    1.0000 </r>
       <r>   -4.8779    1.0000 </r>
       <r>   -4.8771    1.0000 </r>
       <r>   -4.7901    1.0000 </r>
       <r>   -4.6595    1.0000 </r>
       <r>   -4.6591    1.0000 </r>
       <r>   -4.6211    1.0000 </r>
       <r>   -1.4221    0.0000 </r>
       <r>   -1.4213    0.0000 </r>
       <r>   -1.4086    0.0000 </r>
       <r>   -1.4085    0.0000 </r>
       <r>   -0.2810    0.0000 </r>
       <r>   -0.2757    0.0000 </r>
       <r>   -0.0322    0.0000 </r>
       <r>   -0.0277    0.0000 </r>
       <r>   -0.0152    0.0000 </r>
       <r>    0.0297    0.0000 </r>
       <r>    0.1718    0.0000 </r>
       <r>    0.2345    0.0000 </r>
       <r>    0.7655    0.0000 </r>
       <r>    0.8737    0.0000 </r>
       <r>    0.8897    0.0000 </r>
       <r>    0.9592    0.0000 </r>
       <r>    0.9631    0.0000 </r>
       <r>    1.0745    0.0000 </r>
       <r>    1.1225    0.0000 </r>
       <r>    1.1785    0.0000 </r>
       <r>    1.2157    0.0000 </r>
       <r>    1.3221    0.0000 </r>
       <r>    1.3676    0.0000 </r>
       <r>    1.3890    0.0000 </r>
       <r>    1.5426    0.0000 </r>
       <r>    1.7465    0.0000 </r>
       <r>    1.7647    0.0000 </r>
       <r>    1.8071    0.0000 </r>
       <r>    1.8100    0.0000 </r>
       <r>    1.9233    0.0000 </r>
       <r>    1.9652    0.0000 </r>
       <r>    2.0318    0.0000 </r>
       <r>    2.0690    0.0000 </r>
       <r>    2.2478    0.0000 </r>
       <r>    2.2690    0.0000 </r>
       <r>    2.3210    0.0000 </r>
       <r>    2.3631    0.0000 </r>
       <r>    2.3835    0.0000 </r>
       <r>    2.4345    0.0000 </r>
       <r>    2.4658    0.0000 </r>
       <r>    2.4903    0.0000 </r>
       <r>    2.5139    0.0000 </r>
       <r>    2.5213    0.0000 </r>
       <r>    2.5389    0.0000 </r>
       <r>    2.5390    0.0000 </r>
       <r>    2.5710    0.0000 </r>
       <r>    2.6001    0.0000 </r>
       <r>    2.6954    0.0000 </r>
       <r>    2.7034    0.0000 </r>
       <r>    2.7554    0.0000 </r>
       <r>    2.8500    0.0000 </r>
       <r>    2.8571    0.0000 </r>
       <r>    2.8697    0.0000 </r>
       <r>    2.8935    0.0000 </r>
       <r>    3.0128    0.0000 </r>
      </set>
      <set comment="kpoint 5">
       <r>  -24.6834    1.0000 </r>
       <r>  -24.6565    1.0000 </r>
       <r>  -21.7563    1.0000 </r>
       <r>  -21.7541    1.0000 </r>
       <r>  -21.6508    1.0000 </r>
       <r>  -21.6481    1.0000 </r>
       <r>  -20.5737    1.0000 </r>
       <r>  -20.4626    1.0000 </r>
       <r>  -20.4602    1.0000 </r>
       <r>  -18.9069    1.0000 </r>
       <r>  -18.8963    1.0000 </r>
       <r>  -18.8960    1.0000 </r>
       <r>  -18.6146    1.0000 </r>
       <r>  -18.6098    1.0000 </r>
       <r>  -18.3720    1.0000 </r>
       <r>  -17.1178    1.0000 </r>
       <r>  -17.0804    1.0000 </r>
       <r>  -17.0796    1.0000 </r>
       <r>  -16.9472    1.0000 </r>
       <r>  -16.9385    1.0000 </r>
       <r>  -16.7351    1.0000 </r>
       <r>  -16.2472    1.0000 </r>
       <r>  -16.2468    1.0000 </r>
       <r>  -16.2015    1.0000 </r>
       <r>  -16.1994    1.0000 </r>
       <r>  -15.7882    1.0000 </r>
       <r>  -14.8471    1.0000 </r>
       <r>  -14.8218    1.0000 </r>
       <r>  -14.8069    1.0000 </r>
       <r>  -14.8040    1.0000 </r>
       <r>  -14.5445    1.0000 </r>
       <r>  -14.3810    1.0000 </r>
       <r>  -12.8106    1.0000 </r>
       <r>  -12.7680    1.0000 </r>
       <r>  -12.7462    1.0000 </r>
       <r>  -12.7106    1.0000 </r>
       <r>  -12.6751    1.0000 </r>
       <r>  -12.6736    1.0000 </r>
       <r>  -12.6632    1.0000 </r>
       <r>  -11.8952    1.0000 </r>
       <r>  -11.4993    1.0000 </r>
       <r>  -11.4612    1.0000 </r>
       <r>  -11.4446    1.0000 </r>
       <r>  -11.2750    1.0000 </r>
       <r>  -10.5417    1.0000 </r>
       <r>  -10.5249    1.0000 </r>
       <r>  -10.4039    1.0000 </r>
       <r>   -9.8679    1.0000 </r>
       <r>   -9.8587    1.0000 </r>
       <r>   -9.6813    1.0000 </r>
       <r>   -9.5347    1.0000 </r>
       <r>   -9.4913    1.0000 </r>
       <r>   -9.4870    1.0000 </r>
       <r>   -9.4498    1.0000 </r>
       <r>   -9.4043    1.0000 </r>
       <r>   -9.3776    1.0000 </r>
       <r>   -9.3646    1.0000 </r>
       <r>   -9.1730    1.0000 </r>
       <r>   -9.1639    1.0000 </r>
       <r>   -8.9842    1.0000 </r>
       <r>   -8.9089    1.0000 </r>
       <r>   -8.9076    1.0000 </r>
       <r>   -8.7511    1.0000 </r>
       <r>   -8.7502    1.0000 </r>
       <r>   -8.7330    1.0000 </r>
       <r>   -8.7036    1.0000 </r>
       <r>   -8.7027    1.0000 </r>
       <r>   -8.6771    1.0000 </r>
       <r>   -8.6700    1.0000 </r>
       <r>   -8.6418    1.0000 </r>
       <r>   -8.6344    1.0000 </r>
       <r>   -8.5992    1.0000 </r>
       <r>   -8.5987    1.0000 </r>
       <r>   -8.4674    1.0000 </r>
       <r>   -8.4142    1.0000 </r>
       <r>   -8.2294    1.0000 </r>
       <r>   -8.2241    1.0000 </r>
       <r>   -8.1685    1.0000 </r>
       <r>   -8.1168    1.0000 </r>
       <r>   -7.9688    1.0000 </r>
       <r>   -7.9687    1.0000 </r>
       <r>   -7.8284    1.0000 </r>
       <r>   -7.2066    1.0000 </r>
       <r>   -7.2061    1.0000 </r>
       <r>   -7.1629    1.0000 </r>
       <r>   -7.1617    1.0000 </r>
       <r>   -7.1116    1.0000 </r>
       <r>   -7.0926    1.0000 </r>
       <r>   -7.0850    1.0000 </r>
       <r>   -7.0420    1.0000 </r>
       <r>   -6.9985    1.0000 </r>
       <r>   -6.9786    1.0000 </r>
       <r>   -6.9519    1.0000 </r>
       <r>   -6.6915    1.0000 </r>
       <r>   -6.6872    1.0000 </r>
       <r>   -5.2294    1.0000 </r>
       <r>   -5.2237    1.0000 </r>
       <r>   -5.1481    1.0000 </r>
       <r>   -5.1450    1.0000 </r>
       <r>   -4.8782    1.0000 </r>
       <r>   -4.8768    1.0000 </r>
       <r>   -4.7915    1.0000 </r>
       <r>   -4.6595    1.0000 </r>
       <r>   -4.6589    1.0000 </r>
       <r>   -4.6214    1.0000 </r>
       <r>   -1.4229    0.0000 </r>
       <r>   -1.4217    0.0000 </r>
       <r>   -1.4080    0.0000 </r>
       <r>   -1.4079    0.0000 </r>
       <r>   -0.2810    0.0000 </r>
       <r>   -0.2716    0.0000 </r>
       <r>   -0.0345    0.0000 </r>
       <r>   -0.0279    0.0000 </r>
       <r>   -0.0131    0.0000 </r>
       <r>    0.0341    0.0000 </r>
       <r>    0.1668    0.0000 </r>
       <r>    0.2386    0.0000 </r>
       <r>    0.7322    0.0000 </r>
       <r>    0.8653    0.0000 </r>
       <r>    0.8667    0.0000 </r>
       <r>    0.9660    0.0000 </r>
       <r>    0.9827    0.0000 </r>
       <r>    1.0666    0.0000 </r>
       <r>    1.1397    0.0000 </r>
       <r>    1.1748    0.0000 </r>
       <r>    1.2309    0.0000 </r>
       <r>    1.3433    0.0000 </r>
       <r>    1.3712    0.0000 </r>
       <r>    1.4047    0.0000 </r>
       <r>    1.5534    0.0000 </r>
       <r>    1.7133    0.0000 </r>
[...]
       <r>   -25.2571     0.0000     0.0000 </r>
       <r>   -25.1553     0.0000     0.0000 </r>
       <r>   -25.0535     0.0000     0.0000 </r>
       <r>   -24.9517     0.0000     0.0000 </r>
       <r>   -24.8500     0.0000     0.0000 </r>
       <r>   -24.7482     0.0000     0.0000 </r>
       <r>   -24.6464    37.8628     3.8535 </r>
       <r>   -24.5446     0.0000     4.0000 </r>
       <r>   -24.4429     0.0000     4.0000 </r>
       <r>   -24.3411     0.0000     4.0000 </r>
       <r>   -24.2393     0.0000     4.0000 </r>
       <r>   -24.1375     0.0000     4.0000 </r>
       <r>   -24.0358     0.0000     4.0000 </r>
       <r>   -23.9340     0.0000     4.0000 </r>
       <r>   -23.8322     0.0000     4.0000 </r>
       <r>   -23.7304     0.0000     4.0000 </r>
       <r>   -23.6286     0.0000     4.0000 </r>
       <r>   -23.5269     0.0000     4.0000 </r>
       <r>   -23.4251     0.0000     4.0000 </r>
       <r>   -23.3233     0.0000     4.0000 </r>
       <r>   -23.2215     0.0000     4.0000 </r>
       <r>   -23.1198     0.0000     4.0000 </r>
       <r>   -23.0180     0.0000     4.0000 </r>
       <r>   -22.9162     0.0000     4.0000 </r>
       <r>   -22.8144     0.0000     4.0000 </r>
       <r>   -22.7127     0.0000     4.0000 </r>
       <r>   -22.6109     0.0000     4.0000 </r>
       <r>   -22.5091     0.0000     4.0000 </r>
       <r>   -22.4073     0.0000     4.0000 </r>
       <r>   -22.3055     0.0000     4.0000 </r>
       <r>   -22.2038     0.0000     4.0000 </r>
       <r>   -22.1020     0.0000     4.0000 </r>
       <r>   -22.0002     0.0000     4.0000 </r>
       <r>   -21.8984     0.0000     4.0000 </r>
       <r>   -21.7967     0.0000     4.0000 </r>
       <r>   -21.6949    40.6182     8.1340 </r>
       <r>   -21.5931    28.1658    12.0000 </r>
       <r>   -21.4913     0.0000    12.0000 </r>
       <r>   -21.3896     0.0000    12.0000 </r>
       <r>   -21.2878     0.0000    12.0000 </r>
       <r>   -21.1860     0.0000    12.0000 </r>
       <r>   -21.0842     0.0000    12.0000 </r>
       <r>   -20.9825     0.0000    12.0000 </r>
       <r>   -20.8807     0.0000    12.0000 </r>
       <r>   -20.7789     0.0000    12.0000 </r>
       <r>   -20.6771     0.0000    12.0000 </r>
       <r>   -20.5753     2.0755    12.2112 </r>
       <r>   -20.4736    26.7670    15.4577 </r>
       <r>   -20.3718     0.0000    18.0000 </r>
       <r>   -20.2700     0.0000    18.0000 </r>
       <r>   -20.1682     0.0000    18.0000 </r>
       <r>   -20.0665     0.0000    18.0000 </r>
       <r>   -19.9647     0.0000    18.0000 </r>
       <r>   -19.8629     0.0000    18.0000 </r>
       <r>   -19.7611     0.0000    18.0000 </r>
       <r>   -19.6594     0.0000    18.0000 </r>
       <r>   -19.5576     0.0000    18.0000 </r>
       <r>   -19.4558     0.0000    18.0000 </r>
       <r>   -19.3540     0.0000    18.0000 </r>
       <r>   -19.2522     0.0000    18.0000 </r>
       <r>   -19.1505     0.0000    18.0000 </r>
       <r>   -19.0487     0.0000    18.0000 </r>
       <r>   -18.9469     0.0000    18.0000 </r>
       <r>   -18.8451    58.9525    24.0000 </r>
       <r>   -18.7434     0.0000    24.0000 </r>
       <r>   -18.6416     0.0014    24.0001 </r>
       <r>   -18.5398    32.8418    27.3427 </r>
       <r>   -18.4380    12.8556    29.1084 </r>
       <r>   -18.3363     7.2050    30.0000 </r>
       <r>   -18.2345     0.0000    30.0000 </r>
       <r>   -18.1327     0.0000    30.0000 </r>
       <r>   -18.0309     0.0000    30.0000 </r>
       <r>   -17.9291     0.0000    30.0000 </r>
       <r>   -17.8274     0.0000    30.0000 </r>
       <r>   -17.7256     0.0000    30.0000 </r>
       <r>   -17.6238     0.0000    30.0000 </r>
       <r>   -17.5220     0.0000    30.0000 </r>
       <r>   -17.4203     0.0000    30.0000 </r>
       <r>   -17.3185     0.0000    30.0000 </r>
       <r>   -17.2167     0.0000    30.0000 </r>
       <r>   -17.1149     5.4626    30.5560 </r>
       <r>   -17.0132    33.7308    36.0000 </r>
       <r>   -16.9114    25.1322    38.5579 </r>
       <r>   -16.8096    11.8299    39.9374 </r>
       <r>   -16.7078    16.3747    42.0000 </r>
       <r>   -16.6060     0.0000    42.0000 </r>
       <r>   -16.5043     0.0000    42.0000 </r>
       <r>   -16.4025     0.0000    42.0000 </r>
       <r>   -16.3007     0.0000    42.0000 </r>
       <r>   -16.1989    67.1572    48.8350 </r>
       <r>   -16.0972     0.0000    50.0000 </r>
       <r>   -15.9954     0.0000    50.0000 </r>
       <r>   -15.8936     0.0000    50.0000 </r>
       <r>   -15.7918     2.1724    50.2211 </r>
       <r>   -15.6901     3.5710    50.7968 </r>
       <r>   -15.5883     5.8329    51.4603 </r>
       <r>   -15.4865     4.1030    52.0176 </r>
       <r>   -15.3847     3.5913    52.4655 </r>
       <r>   -15.2830     4.3068    53.0383 </r>
       <r>   -15.1812     1.4191    53.2111 </r>
       <r>   -15.0794     0.9983    53.3683 </r>
       <r>   -14.9776     1.0254    53.5044 </r>
       <r>   -14.8758     0.8641    53.6546 </r>
       <r>   -14.7741    59.7719    59.7834 </r>
       <r>   -14.6723     1.6028    59.9631 </r>
       <r>   -14.5705     0.0016    60.0002 </r>
       <r>   -14.4687    21.4268    62.1809 </r>
       <r>   -14.3670     0.9759    62.2993 </r>
       <r>   -14.2652     0.9356    62.4286 </r>
       <r>   -14.1634     0.8793    62.5228 </r>
       <r>   -14.0616     0.6967    62.6376 </r>
       <r>   -13.9599     0.9431    62.7626 </r>
       <r>   -13.8581     0.6889    62.8701 </r>
       <r>   -13.7563     0.9511    63.0301 </r>
       <r>   -13.6545     4.4644    63.4877 </r>
       <r>   -13.5527     2.1729    63.7545 </r>
       <r>   -13.4510     2.2772    64.0318 </r>
       <r>   -13.3492     1.7995    64.2831 </r>
       <r>   -13.2474     2.4716    64.5849 </r>
       <r>   -13.1456     3.4216    65.0149 </r>
       <r>   -13.0439     0.8716    65.1554 </r>
       <r>   -12.9421     1.0141    65.3032 </r>
       <r>   -12.8403     1.1931    65.4548 </r>
       <r>   -12.7385    46.7500    70.2581 </r>
       <r>   -12.6368    63.8632    77.9999 </r>
       <r>   -12.5350     0.0000    78.0000 </r>
       <r>   -12.4332     0.0000    78.0000 </r>
       <r>   -12.3314     0.0000    78.0000 </r>
       <r>   -12.2296     0.0000    78.0000 </r>
       <r>   -12.1279     0.0000    78.0000 </r>
       <r>   -12.0261     0.0000    78.0000 </r>
       <r>   -11.9243     0.0023    78.0002 </r>
       <r>   -11.8225     7.0742    78.8534 </r>
       <r>   -11.7208    10.0034    79.9848 </r>
       <r>   -11.6190     9.6818    80.9854 </r>
       <r>   -11.5172     4.8543    81.5607 </r>
       <r>   -11.4154    27.8993    84.6395 </r>
       <r>   -11.3137     9.6507    85.7156 </r>
       <r>   -11.2119    18.6674    88.0000 </r>
       <r>   -11.1101     0.0000    88.0000 </r>
       <r>   -11.0083     0.0000    88.0000 </r>
       <r>   -10.9065     0.0000    88.0000 </r>
       <r>   -10.8048     0.0000    88.0000 </r>
       <r>   -10.7030     0.0000    88.0000 </r>
       <r>   -10.6012     0.0000    88.0000 </r>
       <r>   -10.4994    23.8884    90.4313 </r>
       <r>   -10.3977     5.9168    91.1022 </r>
       <r>   -10.2959     6.0041    91.8778 </r>
       <r>   -10.1941     5.3989    92.6828 </r>
       <r>   -10.0923     8.5178    93.6670 </r>
       <r>    -9.9906     6.4949    94.5277 </r>
       <r>    -9.8888     8.8684    95.7026 </r>
       <r>    -9.7870    16.7484    97.9382 </r>
       <r>    -9.6852    35.5669   101.9868 </r>
       <r>    -9.5835     4.4712   102.9884 </r>
       <r>    -9.4817    25.7272   105.7518 </r>
       <r>    -9.3799    49.2530   111.0128 </r>
       <r>    -9.2781    14.4815   114.0072 </r>
       <r>    -9.1763    13.1822   115.7417 </r>
       <r>    -9.0746     0.0000   118.0000 </r>
       <r>    -8.9728     4.2199   118.4295 </r>
       <r>    -8.8710    54.1197   124.1748 </r>
       <r>    -8.7692    15.7129   126.5659 </r>
       <r>    -8.6675    64.3218   135.3133 </r>
       <r>    -8.5657    74.7587   144.6089 </r>
       <r>    -8.4639     7.7285   145.4866 </r>
       <r>    -8.3621    20.2156   148.4575 </r>
       <r>    -8.2604    21.9133   150.7303 </r>
       <r>    -8.1586    34.6166   155.0232 </r>
       <r>    -8.0568    16.6581   157.1621 </r>
       <r>    -7.9550    49.5328   162.8080 </r>
       <r>    -7.8532     4.4869   163.4900 </r>
       <r>    -7.7515     2.9475   164.0000 </r>
       <r>    -7.6497     0.0000   164.0000 </r>
       <r>    -7.5479     0.0000   164.0000 </r>
       <r>    -7.4461     0.0000   164.0000 </r>
       <r>    -7.3444     0.0000   164.0000 </r>
       <r>    -7.2426    13.0057   165.3237 </r>
       <r>    -7.1408    62.3926   172.4835 </r>
       <r>    -7.0390    36.0113   177.6319 </r>
       <r>    -6.9373    54.7353   184.3708 </r>
       <r>    -6.8355     5.6267   185.0727 </r>
       <r>    -6.7337    14.8608   187.0792 </r>
       <r>    -6.6319    25.8735   190.0000 </r>
       <r>    -6.5301     0.0000   190.0000 </r>
       <r>    -6.4284     0.0000   190.0000 </r>
       <r>    -6.3266     0.0000   190.0000 </r>
       <r>    -6.2248     0.0000   190.0000 </r>
       <r>    -6.1230     0.0000   190.0000 </r>
       <r>    -6.0213     0.0000   190.0000 </r>
       <r>    -5.9195     0.0000   190.0000 </r>
       <r>    -5.8177     0.0000   190.0000 </r>
       <r>    -5.7159     0.0000   190.0000 </r>
       <r>    -5.6142     0.0000   190.0000 </r>
       <r>    -5.5124     0.0000   190.0000 </r>
       <r>    -5.4106     0.0000   190.0000 </r>
       <r>    -5.3088     1.4206   190.1446 </r>
       <r>    -5.2070    28.1657   193.5667 </r>
       <r>    -5.1053    28.1160   196.7949 </r>
       <r>    -5.0035     5.8948   198.0000 </r>
       <r>    -4.9017     0.2195   198.0223 </r>
       <r>    -4.7999    39.3457   203.5049 </r>
       <r>    -4.6982     0.0000   204.0000 </r>
       <r>    -4.5964    58.9513   209.9999 </r>
       <r>    -4.4946     0.0000   210.0000 </r>
       <r>    -4.3928     0.0000   210.0000 </r>
       <r>    -4.2911     0.0000   210.0000 </r>
       <r>    -4.1893     0.0000   210.0000 </r>
       <r>    -4.0875     0.0000   210.0000 </r>
       <r>    -3.9857     0.0000   210.0000 </r>
       <r>    -3.8840     0.0000   210.0000 </r>
       <r>    -3.7822     0.0000   210.0000 </r>
       <r>    -3.6804     0.0000   210.0000 </r>
       <r>    -3.5786     0.0000   210.0000 </r>
       <r>    -3.4768     0.0000   210.0000 </r>
       <r>    -3.3751     0.0000   210.0000 </r>
       <r>    -3.2733     0.0000   210.0000 </r>
       <r>    -3.1715     0.0000   210.0000 </r>
       <r>    -3.0697     0.0000   210.0000 </r>
       <r>    -2.9680     0.0000   210.0000 </r>
       <r>    -2.8662     0.0000   210.0000 </r>
       <r>    -2.7644     0.0000   210.0000 </r>
       <r>    -2.6626     0.0000   210.0000 </r>
       <r>    -2.5609     0.0000   210.0000 </r>
       <r>    -2.4591     0.0000   210.0000 </r>
       <r>    -2.3573     0.0000   210.0000 </r>
       <r>    -2.2555     0.0000   210.0000 </r>
       <r>    -2.1537     0.0000   210.0000 </r>
       <r>    -2.0520     0.0000   210.0000 </r>
       <r>    -1.9502     0.0000   210.0000 </r>
       <r>    -1.8484     0.0000   210.0000 </r>
       <r>    -1.7466     0.0000   210.0000 </r>
       <r>    -1.6449     0.0000   210.0000 </r>
       <r>    -1.5431     0.0000   210.0000 </r>
       <r>    -1.4413     2.2394   210.2279 </r>
       <r>    -1.3395    39.3010   218.0000 </r>
       <r>    -1.2378     0.0000   218.0000 </r>
       <r>    -1.1360     0.0000   218.0000 </r>
       <r>    -1.0342     0.0000   218.0000 </r>
       <r>    -0.9324     0.0000   218.0000 </r>
       <r>    -0.8306     0.0000   218.0000 </r>
       <r>    -0.7289     0.0000   218.0000 </r>
       <r>    -0.6271     0.0000   218.0000 </r>
       <r>    -0.5253     0.0000   218.0000 </r>
       <r>    -0.4235     0.0000   218.0000 </r>
       <r>    -0.3218     0.0000   218.0000 </r>
       <r>    -0.2200    26.5069   220.6978 </r>
       <r>    -0.1182    11.2233   221.9756 </r>
       <r>    -0.0164    41.3499   226.2085 </r>
       <r>     0.0853    18.2306   229.8555 </r>
       <r>     0.1871    10.6123   231.1468 </r>
       <r>     0.2889    12.4836   232.7706 </r>
       <r>     0.3907    12.9659   234.3530 </r>
       <r>     0.4925     7.7539   235.4892 </r>
       <r>     0.5942     7.7132   236.5184 </r>
       <r>     0.6960     8.7597   237.5249 </r>
       <r>     0.7978     9.8370   238.7012 </r>
       <r>     0.8996    15.1816   240.4785 </r>
       <r>     1.0013    19.9059   242.7260 </r>
       <r>     1.1031    12.8071   244.4368 </r>
       <r>     1.2049    26.0859   247.3216 </r>
       <r>     1.3067    19.4491   249.9128 </r>
       <r>     1.4084    22.3076   252.7037 </r>
       <r>     1.5102    21.6401   255.4692 </r>
       <r>     1.6120    17.7201   257.8369 </r>
       <r>     1.7138    23.4144   260.7165 </r>
       <r>     1.8155    43.8238   265.6603 </r>
       <r>     1.9173    22.0683   268.7460 </r>
       <r>     2.0191    41.1576   274.2223 </r>
       <r>     2.1209    24.1749   277.5938 </r>
       <r>     2.2227    27.9066   281.0736 </r>
       <r>     2.3244    34.3583   285.6636 </r>
       <r>     2.4262    39.2150   290.9246 </r>
       <r>     2.5280    48.9435   296.6815 </r>
       <r>     2.6298    35.0474   302.1338 </r>
       <r>     2.7315    41.7745   306.7517 </r>
       <r>     2.8333    30.6098   310.6155 </r>
       <r>     2.9351    30.2123   314.6749 </r>
       <r>     3.0369    34.2129   319.0489 </r>
       <r>     3.1386     2.9471   320.0000 </r>
       <r>     3.2404     0.0000   320.0000 </r>
       <r>     3.3422     0.0000   320.0000 </r>
       <r>     3.4440     0.0000   320.0000 </r>
       <r>     3.5458     0.0000   320.0000 </r>
       <r>     3.6475     0.0000   320.0000 </r>
       <r>     3.7493     0.0000   320.0000 </r>
       <r>     3.8511     0.0000   320.0000 </r>
       <r>     3.9529     0.0000   320.0000 </r>
       <r>     4.0546     0.0000   320.0000 </r>
       <r>     4.1564     0.0000   320.0000 </r>
       <r>     4.2582     0.0000   320.0000 </r>
       <r>     4.3600     0.0000   320.0000 </r>
       <r>     4.4617     0.0000   320.0000 </r>
      </set>
     </set>
    </array>
   </total>
  </dos>
 </calculation>
 <structure name="finalpos" >
  <crystal>
   <varray name="basis" >
    <v>      14.49104346       0.00000000       0.00000000 </v>
    <v>      -7.24552173      12.54961177       0.00000000 </v>
    <v>       0.00000000       0.00000000      20.00000000 </v>
   </varray>
   <i name="volume">   3637.13939117 </i>
   <varray name="rec_basis" >
    <v>       0.06900814       0.03984187       0.00000000 </v>
    <v>       0.00000000       0.07968374       0.00000000 </v>
    <v>       0.00000000       0.00000000       0.05000000 </v>
   </varray>
  </crystal>
  <varray name="positions" >
   <v>       0.44325464       0.22162732       0.51277768 </v>
   <v>       0.38861826       0.19430913       0.57426478 </v>
   <v>       0.44887017       0.22443508       0.63967091 </v>
   <v>       0.38994194       0.19497097       0.45106518 </v>
   <v>       0.44978015       0.22489008       0.38569241 </v>
   <v>       0.56220829       0.28110415       0.51302302 </v>
   <v>       0.71889585       0.43779171       0.51302302 </v>
   <v>       0.71889585       0.28110415       0.51302302 </v>
   <v>       0.94779203       0.89558406       0.51202670 </v>
   <v>       0.10441594       0.05220797       0.51202670 </v>
   <v>       0.94779203       0.05220797       0.51202670 </v>
   <v>       0.77837268       0.22162732       0.51277768 </v>
   <v>       0.80569087       0.19430913       0.57426478 </v>
   <v>       0.86172784       0.13827216       0.57361301 </v>
   <v>       0.88836011       0.11163989       0.51174300 </v>
   <v>       0.89421461       0.10578539       0.63716424 </v>
   <v>       0.77556492       0.22443508       0.63967091 </v>
   <v>       0.77837268       0.55674536       0.51277768 </v>
   <v>       0.80569087       0.61138174       0.57426478 </v>
   <v>       0.86172784       0.72345569       0.57361301 </v>
   <v>       0.88836011       0.77672022       0.51174300 </v>
   <v>       0.89421461       0.78842923       0.63716424 </v>
   <v>       0.77556492       0.55112983       0.63967091 </v>
   <v>       0.27654431       0.13827216       0.57361301 </v>
   <v>       0.22327978       0.11163989       0.51174300 </v>
   <v>       0.21157077       0.10578539       0.63716424 </v>
   <v>       0.86117384       0.13882616       0.45052744 </v>
   <v>       0.80502903       0.19497097       0.45106518 </v>
   <v>       0.89061739       0.10938261       0.38484996 </v>
   <v>       0.77510992       0.22489008       0.38569241 </v>
   <v>       0.86117384       0.72234769       0.45052744 </v>
   <v>       0.80502903       0.61005806       0.45106518 </v>
   <v>       0.89061739       0.78123477       0.38484996 </v>
   <v>       0.77510992       0.55021985       0.38569241 </v>
   <v>       0.27765231       0.13882616       0.45052744 </v>
   <v>       0.21876523       0.10938261       0.38484996 </v>
   <v>       0.61175098       0.38824902       0.51299532 </v>
   <v>       0.61175098       0.22350196       0.51299532 </v>
   <v>       0.77649804       0.38824902       0.51299532 </v>
   <v>       0.05487914       0.94512086       0.51220236 </v>
   <v>       0.05487914       0.10975829       0.51220236 </v>
   <v>       0.89024171       0.94512086       0.51220236 </v>
   <v>       0.42939342       0.15348600       0.66984570 </v>
   <v>       0.42939342       0.27590741       0.66984570 </v>
   <v>       0.42947125       0.27574790       0.35544967 </v>
   <v>       0.42947125       0.15372335       0.35544967 </v>
   <v>       0.53536819       0.26768410       0.63219541 </v>
   <v>       0.53635213       0.26817606       0.39268918 </v>
   <v>       0.73231590       0.26768410       0.63219541 </v>
   <v>       0.72409259       0.15348600       0.66984570 </v>
   <v>       0.73231590       0.46463181       0.63219541 </v>
   <v>       0.72409259       0.57060658       0.66984570 </v>
   <v>       0.73182394       0.26817606       0.39268918 </v>
   <v>       0.72425210       0.15372335       0.35544967 </v>
   <v>       0.73182394       0.46364787       0.39268918 </v>
   <v>       0.72425210       0.57052875       0.35544967 </v>
   <v>       0.86944959       0.13055041       0.68220363 </v>
   <v>       0.98131444       0.14074156       0.63940308 </v>
   <v>       0.85925844       0.01868556       0.63940308 </v>
   <v>       0.84651400       0.27590741       0.66984570 </v>
   <v>       0.86944959       0.73889918       0.68220363 </v>
   <v>       0.85925844       0.84057288       0.63940308 </v>
   <v>       0.98131444       0.84057288       0.63940308 </v>
   <v>       0.84651400       0.57060658       0.66984570 </v>
   <v>       0.26110082       0.13055041       0.68220363 </v>
   <v>       0.15942712       0.01868556       0.63940308 </v>
   <v>       0.15942712       0.14074156       0.63940308 </v>
   <v>       0.93394621       0.06605379       0.39152413 </v>
   <v>       0.94133245       0.18072346       0.35472082 </v>
   <v>       0.81927654       0.05866755       0.35472082 </v>
   <v>       0.84627665       0.27574790       0.35544967 </v>
   <v>       0.93394621       0.86789241       0.39152413 </v>
   <v>       0.81927654       0.76060899       0.35472082 </v>
   <v>       0.94133245       0.76060899       0.35472082 </v>
   <v>       0.84627665       0.57052875       0.35544967 </v>
   <v>       0.13210759       0.06605379       0.39152413 </v>
   <v>       0.23939101       0.05866755       0.35472082 </v>
   <v>       0.23939101       0.18072346       0.35472082 </v>
  </varray>
 </structure>
</modeling>
