<?xml version="1.0" encoding="ISO-8859-1"?>
<modeling>
 <generator>
  <i name="program" type="string">vasp </i>
  <i name="version" type="string">5.4.4.18Apr17-6-g9f103f2a35  </i>
  <i name="subversion" type="string">(build Jun 07 2020 16:50:00) complex            parallel </i>
  <i name="platform" type="string">LinuxIFC </i>
  <i name="date" type="string">2023 02 11 </i>
  <i name="time" type="string">02:54:11 </i>
 </generator>
 <incar>
  <i type="string" name="SYSTEM">Simulation for cell shape cell volume r</i>
  <i type="int" name="ISTART">     1</i>
  <i type="string" name="PREC">high</i>
  <i type="string" name="ALGO">48</i>
  <i type="int" name="ICHARG">    11</i>
  <i type="int" name="NELM">   200</i>
  <i type="int" name="IBRION">    -1</i>
  <i name="EDIFF">      0.00001000</i>
  <i name="EDIFFG">     -0.01000000</i>
  <i type="int" name="NSW">     0</i>
  <i type="int" name="ISIF">     2</i>
  <i name="ENCUT">    500.00000000</i>
  <i name="POTIM">      0.30000000</i>
  <i type="string" name="LREAL">A</i>
  <i type="int" name="ISMEAR">     0</i>
  <i name="SIGMA">      0.01000000</i>
  <i type="int" name="NWRITE">     0</i>
  <i type="logical" name="LWAVE"> F  </i>
  <i type="logical" name="LCHARG"> F  </i>
  <v type="int" name="KPOINT_BSE">    -1     0     0     0</v>
  <i type="int" name="NELM">   200</i>
  <i type="string" name="GGA">PE</i>
 </incar>
 <structure name="primitive_cell" >
  <crystal>
   <varray name="basis" >
    <v>      35.38366709      -0.01338377       0.00000000 </v>
    <v>     -17.70349245      30.57616722       0.00000000 </v>
    <v>       0.00000000       0.00000000      20.00000000 </v>
   </varray>
   <i name="volume">  21633.19964933 </i>
   <varray name="rec_basis" >
    <v>       0.02826782       0.01636697       0.00000000 </v>
    <v>       0.00001237       0.03271238       0.00000000 </v>
    <v>       0.00000000       0.00000000       0.05000000 </v>
   </varray>
  </crystal>
  <varray name="positions" >
   <v>       0.29609745       0.18931613      -0.42124289 </v>
   <v>       0.31726614       0.16659628      -0.42671756 </v>
   <v>       0.25255022       0.16619137      -0.40998731 </v>
   <v>       0.30572941       0.23887377      -0.42612702 </v>
   <v>       0.29641879       0.12268439      -0.41910040 </v>
   <v>       0.22968492       0.12220117      -0.40397024 </v>
   <v>       0.22931028       0.19062169      -0.40635208 </v>
   <v>       0.36355617       0.18934070      -0.44415255 </v>
   <v>       0.37046481       0.25377216      -0.44503570 </v>
   <v>       0.29503738       0.26087647      -0.42578317 </v>
   <v>       0.25280411       0.10180082      -0.40864965 </v>
   <v>       0.25177921       0.23694221      -0.41556854 </v>
   <v>       0.38676782       0.23510877      -0.45449662 </v>
   <v>       0.33546678       0.11217808      -0.43254106 </v>
   <v>       0.18372951       0.16854499      -0.39571297 </v>
   <v>       0.38582804       0.16551253      -0.45548121 </v>
   <v>       0.16706563       0.13324184      -0.38851245 </v>
   <v>       0.22923988       0.05346207      -0.40447538 </v>
   <v>       0.22804714       0.25898124      -0.41506430 </v>
   <v>       0.42922641       0.25656689      -0.47778046 </v>
   <v>       0.36681618       0.12212928      -0.44616820 </v>
   <v>       0.24630822       0.29412319      -0.42337553 </v>
   <v>       0.16063944       0.19057440      -0.39526129 </v>
   <v>       0.16597712       0.04789092      -0.39063357 </v>
   <v>       0.28721909       0.04774213      -0.41758890 </v>
   <v>       0.42895549       0.18757881      -0.47925358 </v>
   <v>       0.44641811       0.29162887      -0.48714435 </v>
   <v>       0.25195689       0.03087709      -0.41125925 </v>
   <v>       0.18337252       0.02996142      -0.39618835 </v>
   <v>       0.18290899       0.23630921      -0.40569531 </v>
   <v>       0.45022938       0.23238774      -0.49189265 </v>
   <v>       0.12544583       0.17326665      -0.38778084 </v>
   <v>       0.44498762       0.16879187      -0.48999089 </v>
   <v>       0.16129436      -0.01527321      -0.39646273 </v>
   <v>       0.22987134      -0.01499706      -0.41165343 </v>
   <v>       0.49282378       0.25346877       0.47349747 </v>
   <v>       0.15810028       0.25973106      -0.40915852 </v>
   <v>       0.23043217       0.34281100      -0.43252157 </v>
   <v>       0.18342769      -0.03889970      -0.40483595 </v>
   <v>      -0.48992924       0.29565010       0.45455869 </v>
   <v>       0.18080137       0.30345033      -0.41921332 </v>
   <v>       0.12589636      -0.03388714      -0.39106382 </v>
   <v>       0.25392190      -0.03436776      -0.41951059 </v>
   <v>       0.11456039       0.23636118      -0.40415176 </v>
   <v>      -0.48790612       0.22962649       0.46108227 </v>
   <v>       0.25176459       0.37421262      -0.44630923 </v>
   <v>       0.23185797      -0.06711373      -0.42107662 </v>
   <v>      -0.45982125       0.30870441       0.40621482 </v>
   <v>       0.15764285       0.32411972      -0.42647648 </v>
   <v>       0.15905738      -0.08668467      -0.40894111 </v>
   <v>      -0.44171610       0.37808893       0.48653498 </v>
   <v>      -0.45851856       0.24493612       0.41121311 </v>
   <v>       0.09333974       0.25905134      -0.40990352 </v>
   <v>       0.22724626       0.39301813      -0.45532775 </v>
   <v>       0.04081207       0.17308663      -0.39011992 </v>
   <v>      -0.44995936       0.28083018       0.37498890 </v>
   <v>       0.18231385      -0.10700606      -0.41953062 </v>
   <v>       0.11371894       0.30267944      -0.42109512 </v>
   <v>       0.18115269       0.37052984      -0.44355376 </v>
   <v>       0.11507266      -0.10803192      -0.40400552 </v>
   <v>      -0.42938978       0.35570631       0.39245772 </v>
   <v>      -0.41958736       0.38651867       0.44414376 </v>
   <v>      -0.44121871       0.19461547       0.49273903 </v>
   <v>       0.28287709       0.45232842      -0.49063563 </v>
   <v>       0.02214020       0.18972637      -0.39630244 </v>
   <v>       0.24811211       0.43615191      -0.47931217 </v>
   <v>       0.04561315       0.23547801      -0.40603626 </v>
   <v>      -0.42877277       0.22798817       0.39836244 </v>
   <v>       0.24699651      -0.11604711      -0.44307549 </v>
   <v>       0.04069926      -0.11936886      -0.38836586 </v>
   <v>      -0.41947182       0.20643302       0.44956607 </v>
   <v>      -0.42619992       0.27437354       0.30732693 </v>
   <v>       0.15976664      -0.15088138      -0.42659613 </v>
   <v>      -0.40177047       0.36703426       0.33708593 </v>
   <v>       0.09481153      -0.15158308      -0.41005142 </v>
   <v>       0.15849546       0.39359902      -0.45326050 </v>
   <v>      -0.37927704       0.42493689       0.44422196 </v>
   <v>      -0.40834830       0.34410473       0.29640142 </v>
   <v>       0.07360530       0.31205733      -0.42454378 </v>
   <v>      -0.36955068       0.44722142       0.48673895 </v>
   <v>      -0.02302251       0.16640932      -0.39551834 </v>
   <v>      -0.40113980       0.24236796       0.34081580 </v>
   <v>       0.22871817      -0.15107154      -0.45275354 </v>
   <v>       0.22443995       0.45725553      -0.49143094 </v>
   <v>       0.12355890       0.37711224      -0.44333347 </v>
   <v>      -0.04084905       0.13109584      -0.38879015 </v>
   <v>      -0.40797255       0.26218566       0.28840222 </v>
   <v>       0.11579445      -0.17415036      -0.42100093 </v>
   <v>       0.02290264      -0.15462733      -0.39575895 </v>
   <v>       0.02163697       0.25780947      -0.41404199 </v>
   <v>       0.18291594      -0.17409246      -0.44348092 </v>
   <v>       0.17934265       0.43611601      -0.47653145 </v>
   <v>       0.04651843      -0.17661654      -0.40655300 </v>
   <v>      -0.38114558       0.20450402       0.44921299 </v>
   <v>       0.04090224       0.30119813      -0.42336019 </v>
   <v>      -0.36110135       0.40533962       0.33699417 </v>
   <v>      -0.34811583       0.43367212       0.39375399 </v>
   <v>      -0.37223816       0.19158956       0.49208275 </v>
   <v>       0.28579426      -0.15339670      -0.48401709 </v>
   <v>       0.28848270      -0.48123916       0.45925668 </v>
   <v>       0.25070102      -0.17164771      -0.47543725 </v>
   <v>      -0.04661567       0.18857021      -0.40470049 </v>
   <v>       0.24564563       0.49978797       0.47363058 </v>
   <v>      -0.04095378      -0.16152929      -0.38823684 </v>
   <v>      -0.02417105       0.23385522      -0.41319503 </v>
   <v>      -0.02226804      -0.17804384      -0.39571210 </v>
   <v>      -0.36303203       0.23981506       0.34054007 </v>
   <v>       0.37027334      -0.43550625       0.48810611 </v>
   <v>      -0.35105901       0.22448606       0.39636726 </v>
   <v>       0.16140718       0.45322271      -0.48539412 </v>
   <v>       0.10581464      -0.22390088      -0.43392406 </v>
   <v>       0.15957409      -0.22024862      -0.45519448 </v>
   <v>       0.02409543      -0.22181702      -0.41590755 </v>
   <v>      -0.33414363       0.41174348       0.28522960 </v>
   <v>       0.30192088      -0.45195598       0.40925993 </v>
   <v>      -0.30146244       0.46357162       0.40708999 </v>
   <v>       0.37983253      -0.41330071       0.44550814 </v>
   <v>      -0.34067866       0.25536234       0.29895389 </v>
   <v>      -0.12627277       0.04583173      -0.38748956 </v>
   <v>      -0.04109334       0.25210214      -0.42045366 </v>
   <v>       0.04103230      -0.23992040      -0.42451260 </v>
   <v>       0.11618775      -0.24507471      -0.44674021 </v>
   <v>       0.22077362      -0.48266729       0.45637681 </v>
   <v>       0.22701877      -0.21686808      -0.49006419 </v>
   <v>      -0.28775996       0.49304917       0.45685344 </v>
   <v>      -0.09492267       0.16356207      -0.40782677 </v>
   <v>       0.34848779      -0.42215733       0.39530170 </v>
   <v>      -0.30380240       0.43043721       0.30436571 </v>
   <v>      -0.11521657       0.12000720      -0.40177856 </v>
   <v>      -0.04574005      -0.22372202      -0.40621351 </v>
   <v>       0.18216262      -0.24088135      -0.47838084 </v>
   <v>      -0.30394152       0.24125937       0.40868709 </v>
   <v>      -0.02170640      -0.24585838      -0.41595055 </v>
   <v>      -0.12563261      -0.16172984      -0.38721354 </v>
   <v>      -0.27385364       0.45500246       0.37183300 </v>
   <v>       0.44233335      -0.36625399       0.48739620 </v>
   <v>       0.27412236      -0.44347034       0.37439254 </v>
   <v>       0.42008071      -0.37483082       0.44513882 </v>
   <v>      -0.28242927      -0.44068989      -0.49265503 </v>
   <v>      -0.16632784      -0.03594117      -0.38719789 </v>
   <v>      -0.16159870       0.02721225      -0.39389450 </v>
   <v>       0.23712012      -0.45285174       0.40746722 </v>
   <v>      -0.29014027       0.22499940       0.45715436 </v>
   <v>       0.29097498      -0.21251739       0.45762012 </v>
   <v>      -0.27660313       0.27852316       0.37574771 </v>
   <v>      -0.16702491      -0.12153311      -0.38789390 </v>
   <v>       0.24867220      -0.23784467       0.47550807 </v>
   <v>      -0.11587150       0.18615335      -0.41876653 </v>
   <v>       0.36119658      -0.39392930       0.33844554 </v>
   <v>      -0.11486902      -0.22488344      -0.40308069 </v>
   <v>      -0.24473797      -0.48752235       0.47017414 </v>
   <v>      -0.09349902      -0.24738901      -0.40950340 </v>
   <v>       0.37305469      -0.17889266       0.49152091 </v>
   <v>       0.16376567      -0.27573271      -0.48955201 </v>
   <v>      -0.27118453       0.30772074       0.30699685 </v>
   <v>       0.30375794      -0.41915347       0.30635031 </v>
   <v>      -0.18367094      -0.01802778      -0.39369017 </v>
   <v>      -0.15919243       0.09866958      -0.40725488 </v>
   <v>      -0.23637067       0.46501641       0.40396485 </v>
   <v>      -0.16084430      -0.17901187      -0.39447386 </v>
   <v>      -0.25242184       0.41224791       0.29569863 </v>
   <v>      -0.04088777      -0.28914136      -0.42624731 </v>
   <v>      -0.25927954       0.33788149       0.28702996 </v>
   <v>       0.33401007      -0.40044570       0.28695329 </v>
   <v>      -0.24762203      -0.42434935      -0.48158178 </v>
   <v>      -0.10557482       0.23575616      -0.43279291 </v>
   <v>      -0.23618357       0.40613341       0.33698615 </v>
   <v>      -0.18361516       0.05086200      -0.40337929 </v>
   <v>      -0.24012002       0.30649461       0.41020532 </v>
   <v>       0.42962829      -0.34412373       0.39338766 </v>
   <v>      -0.18383188      -0.15686147      -0.39491118 </v>
   <v>      -0.23869417       0.36542341       0.33829092 </v>
   <v>      -0.21958384       0.49539751       0.45204495 </v>
   <v>      -0.21991714       0.43439736       0.39171748 </v>
   <v>      -0.28523700       0.16603150      -0.48445525 </v>
   <v>       0.30449273      -0.22896717       0.40901215 </v>
   <v>      -0.24769762       0.25026407       0.47430650 </v>
   <v>       0.40183060      -0.35558444       0.33820910 </v>
   <v>      -0.22340163       0.35306894       0.39575046 </v>
   <v>      -0.22368141      -0.44505910      -0.49464490 </v>
   <v>       0.38178336      -0.19214477       0.44888448 </v>
   <v>      -0.07362986      -0.30011550      -0.42642753 </v>
   <v>      -0.22398686       0.29320604       0.45994724 </v>
   <v>       0.22070171      -0.42223328       0.39504550 </v>
   <v>       0.18666298      -0.43494566       0.48980644 </v>
   <v>       0.22518177      -0.28091715       0.46201788 </v>
   <v>      -0.15979626       0.16291294      -0.42508857 </v>
   <v>      -0.19911616       0.42510657       0.44423811 </v>
   <v>       0.35154317      -0.21233241       0.39628087 </v>
   <v>      -0.20105605       0.38479399       0.44563295 </v>
   <v>      -0.15838999      -0.24825889      -0.40842365 </v>
   <v>      -0.18238576       0.11900122      -0.41838385 </v>
   <v>      -0.11378005      -0.29095075      -0.42117389 </v>
   <v>      -0.25176300      -0.36295181      -0.44698775 </v>
   <v>      -0.18318682      -0.22478247      -0.40472014 </v>
   <v>      -0.11569562       0.25702841      -0.44637433 </v>
   <v>      -0.18552497       0.44765382       0.48621972 </v>
   <v>      -0.22699618      -0.38139830      -0.45682957 </v>
   <v>      -0.18858725       0.37554133       0.48875034 </v>
   <v>      -0.22943788      -0.04155617      -0.40321131 </v>
   <v>      -0.22985889      -0.11033241      -0.40225166 </v>
   <v>      -0.25016420       0.18412851      -0.47565989 </v>
   <v>       0.20010925      -0.41263801       0.44752769 </v>
   <v>       0.27693495      -0.26636007       0.37647765 </v>
   <v>      -0.44633341      -0.27983250      -0.48626036 </v>
   <v>       0.40821530      -0.33272467       0.29749791 </v>
   <v>      -0.22621803       0.22926769      -0.49080613 </v>
   <v>       0.25273131      -0.40072693       0.29857395 </v>
   <v>       0.45997331      -0.29710099       0.40701484 </v>
   <v>       0.41998085      -0.19430519       0.44937103 </v>
   <v>       0.44180814      -0.18235433       0.49243938 </v>
   <v>       0.49001283      -0.28400793       0.45547620 </v>
   <v>      -0.22996736       0.02693808      -0.41159605 </v>
   <v>      -0.22943232      -0.17881214      -0.40537111 </v>
   <v>       0.24090016      -0.29430960       0.41185760 </v>
   <v>       0.23669398      -0.39434076       0.33986733 </v>
   <v>      -0.17853643      -0.42367183      -0.48003500 </v>
   <v>       0.36329403      -0.22804460       0.34066302 </v>
   <v>      -0.25298475      -0.08992679      -0.40719129 </v>
   <v>      -0.23064171      -0.33157740      -0.43291728 </v>
   <v>      -0.18270516       0.18626026      -0.44263709 </v>
   <v>      -0.18099732      -0.29192154      -0.41929575 </v>
   <v>      -0.15768413      -0.31242973      -0.42695307 </v>
   <v>      -0.15908596       0.23236746      -0.45493844 </v>
   <v>      -0.25204248      -0.01894579      -0.41134613 </v>
   <v>      -0.25264198      -0.15430138      -0.40885536 </v>
   <v>      -0.16036991      -0.44045585      -0.48965755 </v>
   <v>      -0.23190347       0.07904738      -0.42171155 </v>
   <v>       0.34083202      -0.24373963       0.29924517 </v>
   <v>      -0.22834024      -0.24733299      -0.41394873 </v>
   <v>      -0.22847911       0.16343126      -0.45220332 </v>
   <v>      -0.42925956      -0.24479938      -0.47664914 </v>
   <v>      -0.24697990       0.12846419      -0.44209242 </v>
   <v>      -0.18091056      -0.35869011      -0.44508077 </v>
   <v>      -0.37040237      -0.24186960      -0.44413466 </v>
   <v>      -0.25394381       0.04628831      -0.42067479 </v>
   <v>      -0.25196387      -0.22515933      -0.41452081 </v>
   <v>      -0.18138879       0.25311177      -0.47891709 </v>
   <v>      -0.24669990      -0.28249011      -0.42215505 </v>
   <v>       0.45008483      -0.26929582       0.37562980 </v>
   <v>       0.42903060      -0.21625233       0.39848716 </v>
   <v>       0.27126495      -0.29612874       0.30830707 </v>
   <v>       0.20204617      -0.37233318       0.44839532 </v>
   <v>      -0.15795494      -0.38136007      -0.45590987 </v>
   <v>       0.40131279      -0.23077424       0.34103832 </v>
   <v>      -0.12299411      -0.36473584      -0.44617237 </v>
   <v>      -0.49283960      -0.24182070       0.47439145 </v>
   <v>      -0.16278006       0.28790408      -0.49044422 </v>
   <v>      -0.29522793      -0.24902525      -0.42473249 </v>
   <v>       0.23918339      -0.35363603       0.34062694 </v>
   <v>       0.22417276      -0.34093160       0.39801014 </v>
   <v>      -0.38681202      -0.22327962      -0.45332969 </v>
   <v>       0.18974446      -0.36280142       0.49140427 </v>
   <v>      -0.28720043      -0.03578689      -0.41893745 </v>
   <v>      -0.29661042      -0.11081745      -0.41766929 </v>
   <v>      -0.45037344      -0.22070828      -0.49059159 </v>
   <v>      -0.30582974      -0.22695105      -0.42535932 </v>
   <v>      -0.29614045      -0.17736711      -0.42056388 </v>
   <v>       0.42623956      -0.26300733       0.30793366 </v>
   <v>       0.45863513      -0.23332921       0.41162908 </v>
   <v>       0.25949178      -0.32643016       0.28891905 </v>
   <v>       0.48793403      -0.21798852       0.46160968 </v>
   <v>      -0.44541484      -0.15723817      -0.48797509 </v>
   <v>       0.40798951      -0.25087735       0.28886826 </v>
   <v>      -0.31739913      -0.15471288      -0.42549954 </v>
   <v>      -0.33598212      -0.10049305      -0.43008974 </v>
   <v>      -0.36373920      -0.17754284      -0.44266992 </v>
   <v>      -0.42928401      -0.17595659      -0.47743539 </v>
   <v>      -0.36738478      -0.11052605      -0.44343624 </v>
   <v>      -0.38620016      -0.15384399      -0.45344848 </v>
  </varray>
 </structure>
 <varray name="primitive_index" >
  <v type="int" >        1 </v>
  <v type="int" >      128 </v>
  <v type="int" >      127 </v>
  <v type="int" >       80 </v>
  <v type="int" >        2 </v>
  <v type="int" >        3 </v>
  <v type="int" >      181 </v>
  <v type="int" >      145 </v>
  <v type="int" >       73 </v>
  <v type="int" >       40 </v>
  <v type="int" >      129 </v>
  <v type="int" >      182 </v>
  <v type="int" >      174 </v>
  <v type="int" >       56 </v>
  <v type="int" >      156 </v>
  <v type="int" >      146 </v>
  <v type="int" >       61 </v>
  <v type="int" >      161 </v>
  <v type="int" >      183 </v>
  <v type="int" >      173 </v>
  <v type="int" >       37 </v>
  <v type="int" >       79 </v>
  <v type="int" >      155 </v>
  <v type="int" >       66 </v>
  <v type="int" >       84 </v>
  <v type="int" >      147 </v>
  <v type="int" >       74 </v>
  <v type="int" >      189 </v>
  <v type="int" >      162 </v>
  <v type="int" >      154 </v>
  <v type="int" >      172 </v>
  <v type="int" >       62 </v>
  <v type="int" >       55 </v>
  <v type="int" >      234 </v>
  <v type="int" >      261 </v>
  <v type="int" >      137 </v>
  <v type="int" >      135 </v>
  <v type="int" >       60 </v>
  <v type="int" >      260 </v>
  <v type="int" >       10 </v>
  <v type="int" >        8 </v>
  <v type="int" >      102 </v>
  <v type="int" >       51 </v>
  <v type="int" >        9 </v>
  <v type="int" >       11 </v>
  <v type="int" >       39 </v>
  <v type="int" >      120 </v>
  <v type="int" >      136 </v>
  <v type="int" >      134 </v>
  <v type="int" >      205 </v>
  <v type="int" >       70 </v>
  <v type="int" >      138 </v>
  <v type="int" >      133 </v>
  <v type="int" >      152 </v>
  <v type="int" >       64 </v>
  <v type="int" >       12 </v>
  <v type="int" >       25 </v>
  <v type="int" >        7 </v>
  <v type="int" >      151 </v>
  <v type="int" >       27 </v>
  <v type="int" >      166 </v>
  <v type="int" >      167 </v>
  <v type="int" >       67 </v>
  <v type="int" >       59 </v>
  <v type="int" >      160 </v>
  <v type="int" >      153 </v>
  <v type="int" >      186 </v>
  <v type="int" >      190 </v>
  <v type="int" >      113 </v>
  <v type="int" >       98 </v>
  <v type="int" >      165 </v>
  <v type="int" >       86 </v>
  <v type="int" >      206 </v>
  <v type="int" >      195 </v>
  <v type="int" >      207 </v>
  <v type="int" >      180 </v>
  <v type="int" >      168 </v>
  <v type="int" >       87 </v>
  <v type="int" >       83 </v>
  <v type="int" >       69 </v>
  <v type="int" >      159 </v>
  <v type="int" >      191 </v>
  <v type="int" >      252 </v>
  <v type="int" >      178 </v>
  <v type="int" >       77 </v>
  <v type="int" >       65 </v>
  <v type="int" >       43 </v>
  <v type="int" >       26 </v>
  <v type="int" >      227 </v>
  <v type="int" >      187 </v>
  <v type="int" >      223 </v>
  <v type="int" >      179 </v>
  <v type="int" >      226 </v>
  <v type="int" >      164 </v>
  <v type="int" >       42 </v>
  <v type="int" >      194 </v>
  <v type="int" >      193 </v>
  <v type="int" >       68 </v>
  <v type="int" >      114 </v>
  <v type="int" >       32 </v>
  <v type="int" >      251 </v>
  <v type="int" >      158 </v>
  <v type="int" >      144 </v>
  <v type="int" >       97 </v>
  <v type="int" >      188 </v>
  <v type="int" >      228 </v>
  <v type="int" >      192 </v>
  <v type="int" >      105 </v>
  <v type="int" >      163 </v>
  <v type="int" >       78 </v>
  <v type="int" >       96 </v>
  <v type="int" >      224 </v>
  <v type="int" >      255 </v>
  <v type="int" >       44 </v>
  <v type="int" >      213 </v>
  <v type="int" >      140 </v>
  <v type="int" >      240 </v>
  <v type="int" >       85 </v>
  <v type="int" >       63 </v>
  <v type="int" >       82 </v>
  <v type="int" >      115 </v>
  <v type="int" >       48 </v>
  <v type="int" >       31 </v>
  <v type="int" >      250 </v>
  <v type="int" >       14 </v>
  <v type="int" >      132 </v>
  <v type="int" >      265 </v>
  <v type="int" >       88 </v>
  <v type="int" >        6 </v>
  <v type="int" >      253 </v>
  <v type="int" >      225 </v>
  <v type="int" >      141 </v>
  <v type="int" >      254 </v>
  <v type="int" >      101 </v>
  <v type="int" >       15 </v>
  <v type="int" >      106 </v>
  <v type="int" >       33 </v>
  <v type="int" >      239 </v>
  <v type="int" >       91 </v>
  <v type="int" >       99 </v>
  <v type="int" >      157 </v>
  <v type="int" >      212 </v>
  <v type="int" >       16 </v>
  <v type="int" >       34 </v>
  <v type="int" >       18 </v>
  <v type="int" >      100 </v>
  <v type="int" >      215 </v>
  <v type="int" >        5 </v>
  <v type="int" >      266 </v>
  <v type="int" >       21 </v>
  <v type="int" >      208 </v>
  <v type="int" >      199 </v>
  <v type="int" >      104 </v>
  <v type="int" >       95 </v>
  <v type="int" >       90 </v>
  <v type="int" >      124 </v>
  <v type="int" >      230 </v>
  <v type="int" >      130 </v>
  <v type="int" >      139 </v>
  <v type="int" >      232 </v>
  <v type="int" >       89 </v>
  <v type="int" >       49 </v>
  <v type="int" >       45 </v>
  <v type="int" >       53 </v>
  <v type="int" >      219 </v>
  <v type="int" >       58 </v>
  <v type="int" >      198 </v>
  <v type="int" >      184 </v>
  <v type="int" >      143 </v>
  <v type="int" >      238 </v>
  <v type="int" >      233 </v>
  <v type="int" >      197 </v>
  <v type="int" >       13 </v>
  <v type="int" >      169 </v>
  <v type="int" >       76 </v>
  <v type="int" >      214 </v>
  <v type="int" >      142 </v>
  <v type="int" >      267 </v>
  <v type="int" >      196 </v>
  <v type="int" >      244 </v>
  <v type="int" >      236 </v>
  <v type="int" >      116 </v>
  <v type="int" >       17 </v>
  <v type="int" >      241 </v>
  <v type="int" >      108 </v>
  <v type="int" >       35 </v>
  <v type="int" >      131 </v>
  <v type="int" >      170 </v>
  <v type="int" >      235 </v>
  <v type="int" >      171 </v>
  <v type="int" >      201 </v>
  <v type="int" >        4 </v>
  <v type="int" >       19 </v>
  <v type="int" >       46 </v>
  <v type="int" >      231 </v>
  <v type="int" >       38 </v>
  <v type="int" >       72 </v>
  <v type="int" >      218 </v>
  <v type="int" >       71 </v>
  <v type="int" >      229 </v>
  <v type="int" >       24 </v>
  <v type="int" >      176 </v>
  <v type="int" >      242 </v>
  <v type="int" >       36 </v>
  <v type="int" >      112 </v>
  <v type="int" >      123 </v>
  <v type="int" >      175 </v>
  <v type="int" >      125 </v>
  <v type="int" >      209 </v>
  <v type="int" >      237 </v>
  <v type="int" >      103 </v>
  <v type="int" >       28 </v>
  <v type="int" >      185 </v>
  <v type="int" >      257 </v>
  <v type="int" >      216 </v>
  <v type="int" >      270 </v>
  <v type="int" >      245 </v>
  <v type="int" >      264 </v>
  <v type="int" >      204 </v>
  <v type="int" >       92 </v>
  <v type="int" >      148 </v>
  <v type="int" >       20 </v>
  <v type="int" >      200 </v>
  <v type="int" >      149 </v>
  <v type="int" >      256 </v>
  <v type="int" >      202 </v>
  <v type="int" >      110 </v>
  <v type="int" >       81 </v>
  <v type="int" >      121 </v>
  <v type="int" >      259 </v>
  <v type="int" >      177 </v>
  <v type="int" >      248 </v>
  <v type="int" >       75 </v>
  <v type="int" >      217 </v>
  <v type="int" >      111 </v>
  <v type="int" >       41 </v>
  <v type="int" >      258 </v>
  <v type="int" >      150 </v>
  <v type="int" >      118 </v>
  <v type="int" >       30 </v>
  <v type="int" >      262 </v>
  <v type="int" >      126 </v>
  <v type="int" >      243 </v>
  <v type="int" >      246 </v>
  <v type="int" >      263 </v>
  <v type="int" >      109 </v>
  <v type="int" >      210 </v>
  <v type="int" >       57 </v>
  <v type="int" >       50 </v>
  <v type="int" >      269 </v>
  <v type="int" >      268 </v>
  <v type="int" >      249 </v>
  <v type="int" >      107 </v>
  <v type="int" >      117 </v>
  <v type="int" >       23 </v>
  <v type="int" >      247 </v>
  <v type="int" >      119 </v>
  <v type="int" >       22 </v>
  <v type="int" >      122 </v>
  <v type="int" >      211 </v>
  <v type="int" >       54 </v>
  <v type="int" >       29 </v>
  <v type="int" >       93 </v>
  <v type="int" >       52 </v>
  <v type="int" >      203 </v>
  <v type="int" >       94 </v>
  <v type="int" >      220 </v>
  <v type="int" >      222 </v>
  <v type="int" >       47 </v>
  <v type="int" >      221 </v>
 </varray>
 <kpoints>
  <generation param="listgenerated">
   <i name="divisions" type="int">      20 </i>
   <v>       0.00000000       0.00000000       0.00000000 </v>
   <v>       0.50000000       0.00000000       0.00000000 </v>
   <v>       0.33333333       0.33333333       0.00000000 </v>
   <v>       0.00000000       0.00000000       0.00000000 </v>
  </generation>
  <varray name="kpointlist" >
   <v>       0.00000000       0.00000000       0.00000000 </v>
   <v>       0.02631579       0.00000000       0.00000000 </v>
   <v>       0.05263158       0.00000000       0.00000000 </v>
   <v>       0.07894737       0.00000000       0.00000000 </v>
   <v>       0.10526316       0.00000000       0.00000000 </v>
   <v>       0.13157895       0.00000000       0.00000000 </v>
   <v>       0.15789474       0.00000000       0.00000000 </v>
   <v>       0.18421053       0.00000000       0.00000000 </v>
   <v>       0.21052632       0.00000000       0.00000000 </v>
   <v>       0.23684211       0.00000000       0.00000000 </v>
   <v>       0.26315789       0.00000000       0.00000000 </v>
   <v>       0.28947368       0.00000000       0.00000000 </v>
   <v>       0.31578947       0.00000000       0.00000000 </v>
   <v>       0.34210526       0.00000000       0.00000000 </v>
   <v>       0.36842105       0.00000000       0.00000000 </v>
   <v>       0.39473684       0.00000000       0.00000000 </v>
   <v>       0.42105263       0.00000000       0.00000000 </v>
   <v>       0.44736842       0.00000000       0.00000000 </v>
   <v>       0.47368421       0.00000000       0.00000000 </v>
   <v>       0.50000000       0.00000000       0.00000000 </v>
   <v>       0.50000000       0.00000000       0.00000000 </v>
   <v>       0.49122807       0.01754386       0.00000000 </v>
   <v>       0.48245614       0.03508772       0.00000000 </v>
   <v>       0.47368421       0.05263158       0.00000000 </v>
   <v>       0.46491228       0.07017544       0.00000000 </v>
   <v>       0.45614035       0.08771930       0.00000000 </v>
   <v>       0.44736842       0.10526316       0.00000000 </v>
   <v>       0.43859649       0.12280702       0.00000000 </v>
   <v>       0.42982456       0.14035088       0.00000000 </v>
   <v>       0.42105263       0.15789474       0.00000000 </v>
   <v>       0.41228070       0.17543860       0.00000000 </v>
   <v>       0.40350877       0.19298246       0.00000000 </v>
   <v>       0.39473684       0.21052632       0.00000000 </v>
   <v>       0.38596491       0.22807018       0.00000000 </v>
   <v>       0.37719298       0.24561404       0.00000000 </v>
   <v>       0.36842105       0.26315789       0.00000000 </v>
   <v>       0.35964912       0.28070175       0.00000000 </v>
   <v>       0.35087719       0.29824561       0.00000000 </v>
   <v>       0.34210526       0.31578947       0.00000000 </v>
   <v>       0.33333333       0.33333333       0.00000000 </v>
   <v>       0.33333333       0.33333333       0.00000000 </v>
   <v>       0.31578947       0.31578947       0.00000000 </v>
   <v>       0.29824561       0.29824561       0.00000000 </v>
   <v>       0.28070175       0.28070175       0.00000000 </v>
   <v>       0.26315789       0.26315789       0.00000000 </v>
   <v>       0.24561404       0.24561404       0.00000000 </v>
   <v>       0.22807018       0.22807018       0.00000000 </v>
   <v>       0.21052632       0.21052632       0.00000000 </v>
   <v>       0.19298246       0.19298246       0.00000000 </v>
   <v>       0.17543860       0.17543860       0.00000000 </v>
   <v>       0.15789474       0.15789474       0.00000000 </v>
   <v>       0.14035088       0.14035088       0.00000000 </v>
   <v>       0.12280702       0.12280702       0.00000000 </v>
   <v>       0.10526316       0.10526316       0.00000000 </v>
   <v>       0.08771930       0.08771930       0.00000000 </v>
   <v>       0.07017544       0.07017544       0.00000000 </v>
   <v>       0.05263158       0.05263158       0.00000000 </v>
   <v>       0.03508772       0.03508772       0.00000000 </v>
   <v>       0.01754386       0.01754386       0.00000000 </v>
   <v>       0.00000000       0.00000000       0.00000000 </v>
  </varray>
  <varray name="weights" >
   <v>       0.01666667 </v>
   <v>       0.01666667 </v>
   <v>       0.01666667 </v>
   <v>       0.01666667 </v>
   <v>       0.01666667 </v>
   <v>       0.01666667 </v>
   <v>       0.01666667 </v>
   <v>       0.01666667 </v>
   <v>       0.01666667 </v>
   <v>       0.01666667 </v>
   <v>       0.01666667 </v>
   <v>       0.01666667 </v>
   <v>       0.01666667 </v>
   <v>       0.01666667 </v>
   <v>       0.01666667 </v>
   <v>       0.01666667 </v>
   <v>       0.01666667 </v>
   <v>       0.01666667 </v>
   <v>       0.01666667 </v>
   <v>       0.01666667 </v>
   <v>       0.01666667 </v>
   <v>       0.01666667 </v>
   <v>       0.01666667 </v>
   <v>       0.01666667 </v>
   <v>       0.01666667 </v>
   <v>       0.01666667 </v>
   <v>       0.01666667 </v>
   <v>       0.01666667 </v>
   <v>       0.01666667 </v>
   <v>       0.01666667 </v>
   <v>       0.01666667 </v>
   <v>       0.01666667 </v>
   <v>       0.01666667 </v>
   <v>       0.01666667 </v>
   <v>       0.01666667 </v>
   <v>       0.01666667 </v>
   <v>       0.01666667 </v>
   <v>       0.01666667 </v>
   <v>       0.01666667 </v>
   <v>       0.01666667 </v>
   <v>       0.01666667 </v>
   <v>       0.01666667 </v>
   <v>       0.01666667 </v>
   <v>       0.01666667 </v>
   <v>       0.01666667 </v>
   <v>       0.01666667 </v>
   <v>       0.01666667 </v>
   <v>       0.01666667 </v>
   <v>       0.01666667 </v>
   <v>       0.01666667 </v>
   <v>       0.01666667 </v>
   <v>       0.01666667 </v>
   <v>       0.01666667 </v>
   <v>       0.01666667 </v>
   <v>       0.01666667 </v>
   <v>       0.01666667 </v>
   <v>       0.01666667 </v>
   <v>       0.01666667 </v>
   <v>       0.01666667 </v>
   <v>       0.01666667 </v>
  </varray>
 </kpoints>
 <parameters>
  <separator name="general" >
   <i type="string" name="SYSTEM">Simulation for cell shape cell volume r</i>
   <i type="logical" name="LCOMPAT"> F  </i>
  </separator>
  <separator name="electronic" >
   <i type="string" name="PREC">high</i>
   <i name="ENMAX">    500.00000000</i>
   <i name="ENAUG">    644.87300000</i>
   <i name="EDIFF">      0.00001000</i>
   <i type="int" name="IALGO">    38</i>
   <i type="int" name="IWAVPR">    10</i>
   <i type="int" name="NBANDS">   608</i>
   <i name="NELECT">    936.00000000</i>
   <i type="int" name="TURBO">     0</i>
   <i type="int" name="IRESTART">     0</i>
   <i type="int" name="NREBOOT">     0</i>
   <i type="int" name="NMIN">     0</i>
   <i name="EREF">      0.00000000</i>
   <separator name="electronic smearing" >
    <i type="int" name="ISMEAR">     0</i>
    <i name="SIGMA">      0.01000000</i>
    <i name="KSPACING">      0.50000000</i>
    <i type="logical" name="KGAMMA"> T  </i>
   </separator>
   <separator name="electronic projectors" >
    <i type="logical" name="LREAL"> T  </i>
    <v name="ROPT">     -0.00040000     -0.00040000     -0.00040000     -0.00040000</v>
    <i type="int" name="LMAXPAW">  -100</i>
    <i type="int" name="LMAXMIX">     2</i>
    <i type="logical" name="NLSPLINE"> F  </i>
   </separator>
   <separator name="electronic startup" >
    <i type="int" name="ISTART">     1</i>
    <i type="int" name="ICHARG">    11</i>
    <i type="int" name="INIWAV">     1</i>
   </separator>
   <separator name="electronic spin" >
    <i type="int" name="ISPIN">     1</i>
    <i type="logical" name="LNONCOLLINEAR"> F  </i>
    <v name="MAGMOM">      1.00000000      1.00000000      1.00000000      1.00000000      1.00000000      1.00000000      1.00000000      1.00000000      1.00000000      1.00000000      1.00000000      1.00000000      1.00000000      1.00000000      1.00000000      1.00000000      1.00000000      1.00000000      1.00000000      1.00000000
      1.00000000      1.00000000      1.00000000      1.00000000      1.00000000      1.00000000      1.00000000      1.00000000      1.00000000      1.00000000      1.00000000      1.00000000      1.00000000      1.00000000      1.00000000      1.00000000      1.00000000      1.00000000      1.00000000      1.00000000
      1.00000000      1.00000000      1.00000000      1.00000000      1.00000000      1.00000000      1.00000000      1.00000000      1.00000000      1.00000000      1.00000000      1.00000000      1.00000000      1.00000000      1.00000000      1.00000000      1.00000000      1.00000000      1.00000000      1.00000000
      1.00000000      1.00000000      1.00000000      1.00000000      1.00000000      1.00000000      1.00000000      1.00000000      1.00000000      1.00000000      1.00000000      1.00000000      1.00000000      1.00000000      1.00000000      1.00000000      1.00000000      1.00000000      1.00000000      1.00000000
      1.00000000      1.00000000      1.00000000      1.00000000      1.00000000      1.00000000      1.00000000      1.00000000      1.00000000      1.00000000      1.00000000      1.00000000      1.00000000      1.00000000      1.00000000      1.00000000      1.00000000      1.00000000      1.00000000      1.00000000
      1.00000000      1.00000000      1.00000000      1.00000000      1.00000000      1.00000000      1.00000000      1.00000000      1.00000000      1.00000000      1.00000000      1.00000000      1.00000000      1.00000000      1.00000000      1.00000000      1.00000000      1.00000000      1.00000000      1.00000000
      1.00000000      1.00000000      1.00000000      1.00000000      1.00000000      1.00000000      1.00000000      1.00000000      1.00000000      1.00000000      1.00000000      1.00000000      1.00000000      1.00000000      1.00000000      1.00000000      1.00000000      1.00000000      1.00000000      1.00000000
      1.00000000      1.00000000      1.00000000      1.00000000      1.00000000      1.00000000      1.00000000      1.00000000      1.00000000      1.00000000      1.00000000      1.00000000      1.00000000      1.00000000      1.00000000      1.00000000      1.00000000      1.00000000      1.00000000      1.00000000
      1.00000000      1.00000000      1.00000000      1.00000000      1.00000000      1.00000000      1.00000000      1.00000000      1.00000000      1.00000000      1.00000000      1.00000000      1.00000000      1.00000000      1.00000000      1.00000000      1.00000000      1.00000000      1.00000000      1.00000000
      1.00000000      1.00000000      1.00000000      1.00000000      1.00000000      1.00000000      1.00000000      1.00000000      1.00000000      1.00000000      1.00000000      1.00000000      1.00000000      1.00000000      1.00000000      1.00000000      1.00000000      1.00000000      1.00000000      1.00000000
      1.00000000      1.00000000      1.00000000      1.00000000      1.00000000      1.00000000      1.00000000      1.00000000      1.00000000      1.00000000      1.00000000      1.00000000      1.00000000      1.00000000      1.00000000      1.00000000      1.00000000      1.00000000      1.00000000      1.00000000
      1.00000000      1.00000000      1.00000000      1.00000000      1.00000000      1.00000000      1.00000000      1.00000000      1.00000000      1.00000000      1.00000000      1.00000000      1.00000000      1.00000000      1.00000000      1.00000000      1.00000000      1.00000000      1.00000000      1.00000000
      1.00000000      1.00000000      1.00000000      1.00000000      1.00000000      1.00000000      1.00000000      1.00000000      1.00000000      1.00000000      1.00000000      1.00000000      1.00000000      1.00000000      1.00000000      1.00000000      1.00000000      1.00000000      1.00000000      1.00000000
      1.00000000      1.00000000      1.00000000      1.00000000      1.00000000      1.00000000      1.00000000      1.00000000      1.00000000      1.00000000</v>
    <i name="NUPDOWN">     -1.00000000</i>
    <i type="logical" name="LSORBIT"> F  </i>
    <v name="SAXIS">      0.00000000      0.00000000      1.00000000</v>
    <i type="logical" name="LSPIRAL"> F  </i>
    <v name="QSPIRAL">      0.00000000      0.00000000      0.00000000</v>
    <i type="logical" name="LZEROZ"> F  </i>
   </separator>
   <separator name="electronic exchange-correlation" >
    <i type="logical" name="LASPH"> F  </i>
    <i type="logical" name="LMETAGGA"> F  </i>
   </separator>
   <separator name="electronic convergence" >
    <i type="int" name="NELM">   200</i>
    <i type="int" name="NELMDL">     0</i>
    <i type="int" name="NELMIN">     2</i>
    <i name="ENINI">    500.00000000</i>
    <separator name="electronic convergence detail" >
     <i type="logical" name="LDIAG"> T  </i>
     <i type="logical" name="LSUBROT"> F  </i>
     <i name="WEIMIN">      0.00000000</i>
     <i name="EBREAK">      0.00000000</i>
     <i name="DEPER">      0.30000000</i>
     <i type="int" name="NRMM">     4</i>
     <i name="TIME">      0.40000000</i>
    </separator>
   </separator>
   <separator name="electronic mixer" >
    <i name="AMIX">      0.40000000</i>
    <i name="BMIX">      1.00000000</i>
    <i name="AMIN">      0.10000000</i>
    <i name="AMIX_MAG">      1.60000000</i>
    <i name="BMIX_MAG">      1.00000000</i>
    <separator name="electronic mixer details" >
     <i type="int" name="IMIX">     4</i>
     <i type="logical" name="MIXFIRST"> F  </i>
     <i type="int" name="MAXMIX">   -45</i>
     <i name="WC">    100.00000000</i>
     <i type="int" name="INIMIX">     1</i>
     <i type="int" name="MIXPRE">     1</i>
     <i type="int" name="MREMOVE">     5</i>
    </separator>
   </separator>
   <separator name="electronic dipolcorrection" >
    <i type="logical" name="LDIPOL"> F  </i>
    <i type="logical" name="LMONO"> F  </i>
    <i type="int" name="IDIPOL">     0</i>
    <i name="EPSILON">      1.00000000</i>
    <v name="DIPOL">   -100.00000000   -100.00000000   -100.00000000</v>
    <i name="EFIELD">      0.00000000</i>
   </separator>
  </separator>
  <separator name="grids" >
   <i type="int" name="NGX">   270</i>
   <i type="int" name="NGY">   270</i>
   <i type="int" name="NGZ">   150</i>
   <i type="int" name="NGXF">   392</i>
   <i type="int" name="NGYF">   392</i>
   <i type="int" name="NGZF">   224</i>
   <i type="logical" name="ADDGRID"> F  </i>
  </separator>
  <separator name="ionic" >
   <i type="int" name="NSW">     0</i>
   <i type="int" name="IBRION">    -1</i>
   <i type="int" name="MDALGO">     0</i>
   <i type="int" name="ISIF">     2</i>
   <i name="PSTRESS">      0.00000000</i>
   <i name="EDIFFG">     -0.01000000</i>
   <i type="int" name="NFREE">     0</i>
   <i name="POTIM">      0.30000000</i>
   <i name="SMASS">     -3.00000000</i>
   <i name="SCALEE">      1.00000000</i>
  </separator>
  <separator name="ionic md" >
   <i name="TEBEG">      0.00010000</i>
   <i name="TEEND">      0.00010000</i>
   <i type="int" name="NBLOCK">     1</i>
   <i type="int" name="KBLOCK">     1</i>
   <i type="int" name="NPACO">   256</i>
   <i name="APACO">     16.00000000</i>
  </separator>
  <separator name="symmetry" >
   <i type="int" name="ISYM">     2</i>
   <i name="SYMPREC">      0.00001000</i>
  </separator>
  <separator name="dos" >
   <i type="int" name="LORBIT">     0</i>
   <v name="RWIGS">     -1.00000000     -1.00000000     -1.00000000     -1.00000000</v>
   <i type="int" name="NEDOS">   301</i>
   <i name="EMIN">     10.00000000</i>
   <i name="EMAX">    -10.00000000</i>
   <i name="EFERMI">      0.00000000</i>
  </separator>
  <separator name="writing" >
   <i type="int" name="NWRITE">     0</i>
   <i type="logical" name="LWAVE"> F  </i>
   <i type="logical" name="LDOWNSAMPLE"> F  </i>
   <i type="logical" name="LCHARG"> F  </i>
   <i type="logical" name="LPARD"> F  </i>
   <i type="logical" name="LVTOT"> F  </i>
   <i type="logical" name="LVHAR"> F  </i>
   <i type="logical" name="LELF"> F  </i>
   <i type="logical" name="LOPTICS"> F  </i>
   <v name="STM">      0.00000000      0.00000000      0.00000000      0.00000000      0.00000000      0.00000000      0.00000000</v>
  </separator>
  <separator name="performance" >
   <i type="int" name="NPAR">    16</i>
   <i type="int" name="NSIM">     4</i>
   <i type="int" name="NBLK">    -1</i>
   <i type="logical" name="LPLANE"> T  </i>
   <i type="logical" name="LSCALAPACK"> T  </i>
   <i type="logical" name="LSCAAWARE"> F  </i>
   <i type="logical" name="LSCALU"> F  </i>
   <i type="logical" name="LASYNC"> F  </i>
   <i type="logical" name="LORBITALREAL"> F  </i>
  </separator>
  <separator name="miscellaneous" >
   <i type="int" name="IDIOT">     3</i>
   <i type="int" name="ISPECIAL">     0</i>
   <i type="logical" name="LMUSIC"> F  </i>
   <v name="POMASS">     14.00100000     16.00000000      1.00000000     12.01100000</v>
   <v name="DARWINR">      0.00000000      0.00000000      0.00000000      0.00000000</v>
   <v name="DARWINV">      1.00000000      1.00000000      1.00000000      1.00000000</v>
   <i type="logical" name="LCORR"> T  </i>
  </separator>
  <i type="logical" name="GGA_COMPAT"> T  </i>
  <i type="logical" name="LBERRY"> F  </i>
  <i type="int" name="ICORELEVEL">     0</i>
  <i type="logical" name="LDAU"> F  </i>
  <i type="int" name="I_CONSTRAINED_M">     0</i>
  <separator name="electronic exchange-correlation" >
   <i type="string" name="GGA">PE</i>
   <i type="int" name="VOSKOWN">     0</i>
   <i type="logical" name="LHFCALC"> F  </i>
   <i type="string" name="PRECFOCK"></i>
   <i type="logical" name="LSYMGRAD"> F  </i>
   <i type="logical" name="LHFONE"> F  </i>
   <i type="logical" name="LRHFCALC"> F  </i>
   <i type="logical" name="LTHOMAS"> F  </i>
   <i type="logical" name="LMODELHF"> F  </i>
   <i name="ENCUT4O">     -1.00000000</i>
   <i type="int" name="EXXOEP">     0</i>
   <i type="int" name="FOURORBIT">     0</i>
   <i name="AEXX">      0.00000000</i>
   <i name="HFALPHA">      0.00000000</i>
   <i name="MCALPHA">      0.00000000</i>
   <i name="ALDAX">      1.00000000</i>
   <i name="AGGAX">      1.00000000</i>
   <i name="ALDAC">      1.00000000</i>
   <i name="AGGAC">      1.00000000</i>
   <i type="int" name="NKREDX">     1</i>
   <i type="int" name="NKREDY">     1</i>
   <i type="int" name="NKREDZ">     1</i>
   <i type="logical" name="SHIFTRED"> F  </i>
   <i type="logical" name="ODDONLY"> F  </i>
   <i type="logical" name="EVENONLY"> F  </i>
   <i type="int" name="LMAXFOCK">     0</i>
   <i type="int" name="NMAXFOCKAE">     0</i>
   <i type="logical" name="LFOCKAEDFT"> F  </i>
   <i name="HFSCREEN">      0.00000000</i>
   <i name="HFSCREENC">      0.00000000</i>
   <i type="int" name="NBANDSGWLOW">     0</i>
  </separator>
  <separator name="vdW DFT" >
   <i type="logical" name="LUSE_VDW"> F  </i>
   <i name="Zab_VDW">     -0.84910000</i>
   <i name="PARAM1">      0.12340000</i>
   <i name="PARAM2">      1.00000000</i>
   <i name="PARAM3">      0.00000000</i>
  </separator>
  <separator name="model GW" >
   <i type="int" name="MODEL_GW">     0</i>
   <i name="MODEL_EPS0">     48.07377700</i>
   <i name="MODEL_ALPHA">      1.00000000</i>
  </separator>
  <separator name="linear response parameters" >
   <i type="logical" name="LEPSILON"> F  </i>
   <i type="logical" name="LRPA"> F  </i>
   <i type="logical" name="LNABLA"> F  </i>
   <i type="logical" name="LVEL"> F  </i>
   <i type="int" name="KINTER">     0</i>
   <i name="CSHIFT">      0.10000000</i>
   <i name="OMEGAMAX">     -1.00000000</i>
   <i name="DEG_THRESHOLD">      0.00200000</i>
   <i name="RTIME">     -0.10000000</i>
   <i name="WPLASMAI">      0.00000000</i>
   <v name="DFIELD">      0.00000000      0.00000000      0.00000000</v>
   <v name="WPLASMA">      0.00000000      0.00000000      0.00000000      0.00000000      0.00000000      0.00000000      0.00000000      0.00000000      0.00000000</v>
  </separator>
  <separator name="orbital magnetization" >
   <i type="logical" name="NUCIND"> F  </i>
   <v name="MAGPOS">      0.00000000      0.00000000      0.00000000</v>
   <i type="logical" name="LNICSALL"> T  </i>
   <i type="logical" name="ORBITALMAG"> F  </i>
   <i type="logical" name="LMAGBLOCH"> F  </i>
   <i type="logical" name="LCHIMAG"> F  </i>
   <i type="logical" name="LGAUGE"> T  </i>
   <i type="int" name="MAGATOM">     0</i>
   <v name="MAGDIPOL">      0.00000000      0.00000000      0.00000000</v>
   <v name="AVECCONST">      0.00000000      0.00000000      0.00000000</v>
  </separator>
  <separator name="response functions" >
   <i type="logical" name="LADDER"> F  </i>
   <i type="logical" name="LRPAFORCE"> F  </i>
   <i type="logical" name="LFXC"> F  </i>
   <i type="logical" name="LHARTREE"> T  </i>
   <i type="int" name="IBSE">     0</i>
   <v type="int" name="KPOINT">    -1     0     0     0</v>
   <i type="logical" name="LTCTE"> F  </i>
   <i type="logical" name="LTETE"> F  </i>
   <i type="logical" name="LTRIPLET"> F  </i>
   <i type="logical" name="LFXCEPS"> F  </i>
   <i type="logical" name="LFXHEG"> F  </i>
   <i type="int" name="NATURALO">     2</i>
   <i type="logical" name="L2ORDER"> F  </i>
   <i type="logical" name="LMP2LT"> F  </i>
   <i type="logical" name="LUSEW"> F  </i>
   <i name="ENCUTGW">     -2.00000000</i>
   <i name="ENCUTGWSOFT">     -2.00000000</i>
   <i name="ENCUTLF">     -1.00000000</i>
   <i type="int" name="LMAXMP2">    -1</i>
   <i name="SCISSOR">      0.00000000</i>
   <i type="int" name="NOMEGA">     0</i>
   <i type="int" name="NOMEGAR">     0</i>
   <i type="int" name="NBANDSGW">    -1</i>
   <i type="int" name="NBANDSO">    -1</i>
   <i type="int" name="NBANDSV">    -1</i>
   <i type="int" name="NELM">   200</i>
   <i type="int" name="NELMHF">     1</i>
   <i type="int" name="DIM">     3</i>
   <i type="int" name="ANTIRES">     0</i>
   <i name="OMEGAMAX">    -30.00000000</i>
   <i name="OMEGAMIN">    -30.00000000</i>
   <i name="OMEGATL">   -200.00000000</i>
   <i type="int" name="OMEGAGRID">   140</i>
   <i name="CSHIFT">     -0.10000000</i>
   <i type="logical" name="SELFENERGY"> F  </i>
   <i type="logical" name="LSPECTRAL"> F  </i>
   <i type="logical" name="LSPECTRALGW"> F  </i>
   <i type="logical" name="LSINGLES"> F  </i>
   <i type="logical" name="LFERMIGW"> F  </i>
   <i type="logical" name="ODDONLYGW"> F  </i>
   <i type="logical" name="EVENONLYGW"> F  </i>
   <i type="int" name="NKREDLFX">     1</i>
   <i type="int" name="NKREDLFY">     1</i>
   <i type="int" name="NKREDLFZ">     1</i>
   <i type="int" name="MAXMEM">  2800</i>
   <i type="int" name="TELESCOPE">     0</i>
   <i type="int" name="TAUPAR">     1</i>
   <i type="int" name="OMEGAPAR">    -1</i>
   <i name="LAMBDA">      1.00000000</i>
  </separator>
  <separator name="External order field" >
   <i name="OFIELD_KAPPA">      0.00000000</i>
   <v name="OFIELD_K">      0.00000000      0.00000000      0.00000000</v>
   <i name="OFIELD_Q6_NEAR">      0.00000000</i>
   <i name="OFIELD_Q6_FAR">      0.00000000</i>
   <i name="OFIELD_A">      0.00000000</i>
  </separator>
  <separator name="solvation model" >
   <i type="logical" name="LSOL"> F  </i>
  </separator>
 </parameters>
 <atominfo>
  <atoms>     270 </atoms>
  <types>       4 </types>
  <array name="atoms" >
   <dimension dim="1">ion</dimension>
   <field type="string">element</field>
   <field type="int">atomtype</field>
   <set>
    <rc><c>N </c><c>   1</c></rc>
    <rc><c>N </c><c>   1</c></rc>
    <rc><c>N </c><c>   1</c></rc>
    <rc><c>N </c><c>   1</c></rc>
    <rc><c>N </c><c>   1</c></rc>
    <rc><c>N </c><c>   1</c></rc>
    <rc><c>N </c><c>   1</c></rc>
    <rc><c>N </c><c>   1</c></rc>
    <rc><c>N </c><c>   1</c></rc>
    <rc><c>N </c><c>   1</c></rc>
    <rc><c>N </c><c>   1</c></rc>
    <rc><c>N </c><c>   1</c></rc>
    <rc><c>N </c><c>   1</c></rc>
    <rc><c>N </c><c>   1</c></rc>
    <rc><c>N </c><c>   1</c></rc>
    <rc><c>N </c><c>   1</c></rc>
    <rc><c>N </c><c>   1</c></rc>
    <rc><c>N </c><c>   1</c></rc>
    <rc><c>N </c><c>   1</c></rc>
    <rc><c>N </c><c>   1</c></rc>
    <rc><c>N </c><c>   1</c></rc>
    <rc><c>N </c><c>   1</c></rc>
    <rc><c>N </c><c>   1</c></rc>
    <rc><c>N </c><c>   1</c></rc>
    <rc><c>N </c><c>   1</c></rc>
    <rc><c>N </c><c>   1</c></rc>
    <rc><c>N </c><c>   1</c></rc>
    <rc><c>N </c><c>   1</c></rc>
    <rc><c>N </c><c>   1</c></rc>
    <rc><c>N </c><c>   1</c></rc>
    <rc><c>N </c><c>   1</c></rc>
    <rc><c>N </c><c>   1</c></rc>
    <rc><c>N </c><c>   1</c></rc>
    <rc><c>N </c><c>   1</c></rc>
    <rc><c>N </c><c>   1</c></rc>
    <rc><c>N </c><c>   1</c></rc>
    <rc><c>O </c><c>   2</c></rc>
    <rc><c>O </c><c>   2</c></rc>
    <rc><c>O </c><c>   2</c></rc>
    <rc><c>O </c><c>   2</c></rc>
    <rc><c>O </c><c>   2</c></rc>
    <rc><c>O </c><c>   2</c></rc>
    <rc><c>O </c><c>   2</c></rc>
    <rc><c>O </c><c>   2</c></rc>
    <rc><c>O </c><c>   2</c></rc>
    <rc><c>O </c><c>   2</c></rc>
    <rc><c>O </c><c>   2</c></rc>
    <rc><c>O </c><c>   2</c></rc>
    <rc><c>O </c><c>   2</c></rc>
    <rc><c>O </c><c>   2</c></rc>
    <rc><c>O </c><c>   2</c></rc>
    <rc><c>O </c><c>   2</c></rc>
    <rc><c>O </c><c>   2</c></rc>
    <rc><c>O </c><c>   2</c></rc>
    <rc><c>H </c><c>   3</c></rc>
    <rc><c>H </c><c>   3</c></rc>
    <rc><c>H </c><c>   3</c></rc>
    <rc><c>H </c><c>   3</c></rc>
    <rc><c>H </c><c>   3</c></rc>
    <rc><c>H </c><c>   3</c></rc>
    <rc><c>H </c><c>   3</c></rc>
    <rc><c>H </c><c>   3</c></rc>
    <rc><c>H </c><c>   3</c></rc>
    <rc><c>H </c><c>   3</c></rc>
    <rc><c>H </c><c>   3</c></rc>
    <rc><c>H </c><c>   3</c></rc>
    <rc><c>H </c><c>   3</c></rc>
    <rc><c>H </c><c>   3</c></rc>
    <rc><c>H </c><c>   3</c></rc>
    <rc><c>H </c><c>   3</c></rc>
    <rc><c>H </c><c>   3</c></rc>
    <rc><c>H </c><c>   3</c></rc>
    <rc><c>H </c><c>   3</c></rc>
    <rc><c>H </c><c>   3</c></rc>
    <rc><c>H </c><c>   3</c></rc>
    <rc><c>H </c><c>   3</c></rc>
    <rc><c>H </c><c>   3</c></rc>
    <rc><c>H </c><c>   3</c></rc>
    <rc><c>H </c><c>   3</c></rc>
    <rc><c>H </c><c>   3</c></rc>
    <rc><c>H </c><c>   3</c></rc>
    <rc><c>H </c><c>   3</c></rc>
    <rc><c>H </c><c>   3</c></rc>
    <rc><c>H </c><c>   3</c></rc>
    <rc><c>H </c><c>   3</c></rc>
    <rc><c>H </c><c>   3</c></rc>
    <rc><c>H </c><c>   3</c></rc>
    <rc><c>H </c><c>   3</c></rc>
    <rc><c>H </c><c>   3</c></rc>
    <rc><c>H </c><c>   3</c></rc>
    <rc><c>H </c><c>   3</c></rc>
    <rc><c>H </c><c>   3</c></rc>
    <rc><c>H </c><c>   3</c></rc>
    <rc><c>H </c><c>   3</c></rc>
    <rc><c>H </c><c>   3</c></rc>
    <rc><c>H </c><c>   3</c></rc>
    <rc><c>H </c><c>   3</c></rc>
    <rc><c>H </c><c>   3</c></rc>
    <rc><c>H </c><c>   3</c></rc>
    <rc><c>H </c><c>   3</c></rc>
    <rc><c>H </c><c>   3</c></rc>
    <rc><c>H </c><c>   3</c></rc>
    <rc><c>H </c><c>   3</c></rc>
    <rc><c>H </c><c>   3</c></rc>
    <rc><c>H </c><c>   3</c></rc>
    <rc><c>H </c><c>   3</c></rc>
    <rc><c>H </c><c>   3</c></rc>
    <rc><c>H </c><c>   3</c></rc>
    <rc><c>H </c><c>   3</c></rc>
    <rc><c>H </c><c>   3</c></rc>
    <rc><c>H </c><c>   3</c></rc>
    <rc><c>H </c><c>   3</c></rc>
    <rc><c>H </c><c>   3</c></rc>
    <rc><c>H </c><c>   3</c></rc>
    <rc><c>H </c><c>   3</c></rc>
    <rc><c>H </c><c>   3</c></rc>
    <rc><c>H </c><c>   3</c></rc>
    <rc><c>H </c><c>   3</c></rc>
    <rc><c>H </c><c>   3</c></rc>
    <rc><c>H </c><c>   3</c></rc>
    <rc><c>H </c><c>   3</c></rc>
    <rc><c>H </c><c>   3</c></rc>
    <rc><c>H </c><c>   3</c></rc>
    <rc><c>H </c><c>   3</c></rc>
    <rc><c>H </c><c>   3</c></rc>
    <rc><c>H </c><c>   3</c></rc>
    <rc><c>C </c><c>   4</c></rc>
    <rc><c>C </c><c>   4</c></rc>
    <rc><c>C </c><c>   4</c></rc>
    <rc><c>C </c><c>   4</c></rc>
    <rc><c>C </c><c>   4</c></rc>
    <rc><c>C </c><c>   4</c></rc>
    <rc><c>C </c><c>   4</c></rc>
    <rc><c>C </c><c>   4</c></rc>
    <rc><c>C </c><c>   4</c></rc>
    <rc><c>C </c><c>   4</c></rc>
    <rc><c>C </c><c>   4</c></rc>
    <rc><c>C </c><c>   4</c></rc>
    <rc><c>C </c><c>   4</c></rc>
    <rc><c>C </c><c>   4</c></rc>
    <rc><c>C </c><c>   4</c></rc>
    <rc><c>C </c><c>   4</c></rc>
    <rc><c>C </c><c>   4</c></rc>
    <rc><c>C </c><c>   4</c></rc>
    <rc><c>C </c><c>   4</c></rc>
    <rc><c>C </c><c>   4</c></rc>
    <rc><c>C </c><c>   4</c></rc>
    <rc><c>C </c><c>   4</c></rc>
    <rc><c>C </c><c>   4</c></rc>
    <rc><c>C </c><c>   4</c></rc>
    <rc><c>C </c><c>   4</c></rc>
    <rc><c>C </c><c>   4</c></rc>
    <rc><c>C </c><c>   4</c></rc>
    <rc><c>C </c><c>   4</c></rc>
    <rc><c>C </c><c>   4</c></rc>
    <rc><c>C </c><c>   4</c></rc>
    <rc><c>C </c><c>   4</c></rc>
    <rc><c>C </c><c>   4</c></rc>
    <rc><c>C </c><c>   4</c></rc>
    <rc><c>C </c><c>   4</c></rc>
    <rc><c>C </c><c>   4</c></rc>
    <rc><c>C </c><c>   4</c></rc>
    <rc><c>C </c><c>   4</c></rc>
    <rc><c>C </c><c>   4</c></rc>
    <rc><c>C </c><c>   4</c></rc>
    <rc><c>C </c><c>   4</c></rc>
    <rc><c>C </c><c>   4</c></rc>
    <rc><c>C </c><c>   4</c></rc>
    <rc><c>C </c><c>   4</c></rc>
    <rc><c>C </c><c>   4</c></rc>
    <rc><c>C </c><c>   4</c></rc>
    <rc><c>C </c><c>   4</c></rc>
    <rc><c>C </c><c>   4</c></rc>
    <rc><c>C </c><c>   4</c></rc>
    <rc><c>C </c><c>   4</c></rc>
    <rc><c>C </c><c>   4</c></rc>
    <rc><c>C </c><c>   4</c></rc>
    <rc><c>C </c><c>   4</c></rc>
    <rc><c>C </c><c>   4</c></rc>
    <rc><c>C </c><c>   4</c></rc>
    <rc><c>C </c><c>   4</c></rc>
    <rc><c>C </c><c>   4</c></rc>
    <rc><c>C </c><c>   4</c></rc>
    <rc><c>C </c><c>   4</c></rc>
    <rc><c>C </c><c>   4</c></rc>
    <rc><c>C </c><c>   4</c></rc>
    <rc><c>C </c><c>   4</c></rc>
    <rc><c>C </c><c>   4</c></rc>
    <rc><c>C </c><c>   4</c></rc>
    <rc><c>C </c><c>   4</c></rc>
    <rc><c>C </c><c>   4</c></rc>
    <rc><c>C </c><c>   4</c></rc>
    <rc><c>C </c><c>   4</c></rc>
    <rc><c>C </c><c>   4</c></rc>
    <rc><c>C </c><c>   4</c></rc>
    <rc><c>C </c><c>   4</c></rc>
    <rc><c>C </c><c>   4</c></rc>
    <rc><c>C </c><c>   4</c></rc>
    <rc><c>C </c><c>   4</c></rc>
    <rc><c>C </c><c>   4</c></rc>
    <rc><c>C </c><c>   4</c></rc>
    <rc><c>C </c><c>   4</c></rc>
    <rc><c>C </c><c>   4</c></rc>
    <rc><c>C </c><c>   4</c></rc>
    <rc><c>C </c><c>   4</c></rc>
    <rc><c>C </c><c>   4</c></rc>
    <rc><c>C </c><c>   4</c></rc>
    <rc><c>C </c><c>   4</c></rc>
    <rc><c>C </c><c>   4</c></rc>
    <rc><c>C </c><c>   4</c></rc>
    <rc><c>C </c><c>   4</c></rc>
    <rc><c>C </c><c>   4</c></rc>
    <rc><c>C </c><c>   4</c></rc>
    <rc><c>C </c><c>   4</c></rc>
    <rc><c>C </c><c>   4</c></rc>
    <rc><c>C </c><c>   4</c></rc>
    <rc><c>C </c><c>   4</c></rc>
    <rc><c>C </c><c>   4</c></rc>
    <rc><c>C </c><c>   4</c></rc>
    <rc><c>C </c><c>   4</c></rc>
    <rc><c>C </c><c>   4</c></rc>
    <rc><c>C </c><c>   4</c></rc>
    <rc><c>C </c><c>   4</c></rc>
    <rc><c>C </c><c>   4</c></rc>
    <rc><c>C </c><c>   4</c></rc>
    <rc><c>C </c><c>   4</c></rc>
    <rc><c>C </c><c>   4</c></rc>
    <rc><c>C </c><c>   4</c></rc>
    <rc><c>C </c><c>   4</c></rc>
    <rc><c>C </c><c>   4</c></rc>
    <rc><c>C </c><c>   4</c></rc>
    <rc><c>C </c><c>   4</c></rc>
    <rc><c>C </c><c>   4</c></rc>
    <rc><c>C </c><c>   4</c></rc>
    <rc><c>C </c><c>   4</c></rc>
    <rc><c>C </c><c>   4</c></rc>
    <rc><c>C </c><c>   4</c></rc>
    <rc><c>C </c><c>   4</c></rc>
    <rc><c>C </c><c>   4</c></rc>
    <rc><c>C </c><c>   4</c></rc>
    <rc><c>C </c><c>   4</c></rc>
    <rc><c>C </c><c>   4</c></rc>
    <rc><c>C </c><c>   4</c></rc>
    <rc><c>C </c><c>   4</c></rc>
    <rc><c>C </c><c>   4</c></rc>
    <rc><c>C </c><c>   4</c></rc>
    <rc><c>C </c><c>   4</c></rc>
    <rc><c>C </c><c>   4</c></rc>
    <rc><c>C </c><c>   4</c></rc>
    <rc><c>C </c><c>   4</c></rc>
    <rc><c>C </c><c>   4</c></rc>
    <rc><c>C </c><c>   4</c></rc>
    <rc><c>C </c><c>   4</c></rc>
    <rc><c>C </c><c>   4</c></rc>
    <rc><c>C </c><c>   4</c></rc>
    <rc><c>C </c><c>   4</c></rc>
    <rc><c>C </c><c>   4</c></rc>
    <rc><c>C </c><c>   4</c></rc>
    <rc><c>C </c><c>   4</c></rc>
    <rc><c>C </c><c>   4</c></rc>
    <rc><c>C </c><c>   4</c></rc>
    <rc><c>C </c><c>   4</c></rc>
    <rc><c>C </c><c>   4</c></rc>
    <rc><c>C </c><c>   4</c></rc>
    <rc><c>C </c><c>   4</c></rc>
    <rc><c>C </c><c>   4</c></rc>
    <rc><c>C </c><c>   4</c></rc>
    <rc><c>C </c><c>   4</c></rc>
    <rc><c>C </c><c>   4</c></rc>
    <rc><c>C </c><c>   4</c></rc>
   </set>
  </array>
  <array name="atomtypes" >
   <dimension dim="1">type</dimension>
   <field type="int">atomspertype</field>
   <field type="string">element</field>
   <field>mass</field>
   <field>valence</field>
   <field type="string">pseudopotential</field>
   <set>
    <rc><c>  36</c><c>N </c><c>     14.00100000</c><c>      5.00000000</c><c>  PAW_PBE N 08Apr2002                   </c></rc>
    <rc><c>  18</c><c>O </c><c>     16.00000000</c><c>      6.00000000</c><c>  PAW_PBE O 08Apr2002                   </c></rc>
    <rc><c>  72</c><c>H </c><c>      1.00000000</c><c>      1.00000000</c><c>  PAW_PBE H 15Jun2001                   </c></rc>
    <rc><c> 144</c><c>C </c><c>     12.01100000</c><c>      4.00000000</c><c>  PAW_PBE C 08Apr2002                   </c></rc>
   </set>
  </array>
 </atominfo>
 <structure name="initialpos" >
  <crystal>
   <varray name="basis" >
    <v>      35.38366709      -0.01338377       0.00000000 </v>
    <v>     -17.70349245      30.57616722       0.00000000 </v>
    <v>       0.00000000       0.00000000      20.00000000 </v>
   </varray>
   <i name="volume">  21633.19964933 </i>
   <varray name="rec_basis" >
    <v>       0.02826782       0.01636697       0.00000000 </v>
    <v>       0.00001237       0.03271238       0.00000000 </v>
    <v>       0.00000000       0.00000000       0.05000000 </v>
   </varray>
  </crystal>
  <varray name="positions" >
   <v>       0.29609745       0.18931613       0.57875711 </v>
   <v>       0.29641879       0.12268439       0.58089960 </v>
   <v>       0.22968492       0.12220117       0.59602976 </v>
   <v>       0.81761424       0.11900122       0.58161615 </v>
   <v>       0.88412850       0.18615335       0.58123347 </v>
   <v>       0.88478343       0.12000720       0.59822144 </v>
   <v>       0.11371894       0.30267944       0.57890488 </v>
   <v>       0.18080137       0.30345033       0.58078668 </v>
   <v>       0.11456039       0.23636118       0.59584824 </v>
   <v>       0.51007076       0.29565010       0.45455869 </v>
   <v>       0.51209388       0.22962649       0.46108227 </v>
   <v>       0.55004064       0.28083018       0.37498890 </v>
   <v>       0.78041616       0.49539751       0.45204495 </v>
   <v>       0.71224004       0.49304917       0.45685344 </v>
   <v>       0.72614636       0.45500246       0.37183300 </v>
   <v>       0.70985973       0.22499940       0.45715436 </v>
   <v>       0.77601314       0.29320604       0.45994724 </v>
   <v>       0.72339687       0.27852316       0.37574771 </v>
   <v>       0.88621995       0.70904925       0.57882611 </v>
   <v>       0.81900268       0.70807846       0.58070425 </v>
   <v>       0.88513098       0.77511656       0.59691931 </v>
   <v>       0.70385955       0.82263289       0.57943612 </v>
   <v>       0.70338958       0.88918255       0.58233071 </v>
   <v>       0.77014111       0.88966759       0.59774834 </v>
   <v>       0.18231385       0.89299394       0.58046938 </v>
   <v>       0.11579445       0.82584964       0.57899907 </v>
   <v>       0.11507266       0.89196808       0.59599448 </v>
   <v>       0.49001283       0.71599207       0.45547620 </v>
   <v>       0.48793403       0.78201148       0.46160968 </v>
   <v>       0.45008483       0.73070418       0.37562980 </v>
   <v>       0.22077362       0.51733271       0.45637681 </v>
   <v>       0.28848270       0.51876084       0.45925668 </v>
   <v>       0.27412236       0.55652966       0.37439254 </v>
   <v>       0.29097498       0.78748261       0.45762012 </v>
   <v>       0.22518177       0.71908285       0.46201788 </v>
   <v>       0.27693495       0.73363993       0.37647765 </v>
   <v>       0.36681618       0.12212928       0.55383180 </v>
   <v>       0.88430438       0.25702841       0.55362567 </v>
   <v>       0.25176459       0.37421262       0.55369077 </v>
   <v>       0.29503738       0.26087647       0.57421683 </v>
   <v>       0.74605619       0.04628831       0.57932521 </v>
   <v>       0.04090224       0.30119813       0.57663981 </v>
   <v>       0.59202745       0.26218566       0.28840222 </v>
   <v>       0.66585637       0.41174348       0.28522960 </v>
   <v>       0.74072046       0.33788149       0.28702996 </v>
   <v>       0.74823700       0.63704819       0.55301225 </v>
   <v>       0.63261522       0.88947395       0.55656376 </v>
   <v>       0.11618775       0.75492529       0.55325979 </v>
   <v>       0.95911223       0.71085864       0.57375269 </v>
   <v>       0.70477207       0.75097475       0.57526751 </v>
   <v>       0.25392190       0.96563224       0.58048941 </v>
   <v>       0.40798951       0.74912265       0.28886826 </v>
   <v>       0.33401007       0.59955430       0.28695329 </v>
   <v>       0.25949178       0.67356984       0.28891905 </v>
   <v>       0.44498762       0.16879187       0.51000911 </v>
   <v>       0.33546678       0.11217808       0.56745894 </v>
   <v>       0.83721994       0.28790408       0.50955578 </v>
   <v>       0.89442518       0.23575616       0.56720709 </v>
   <v>       0.28287709       0.45232842       0.50936437 </v>
   <v>       0.23043217       0.34281100       0.56747843 </v>
   <v>       0.16706563       0.13324184       0.61148755 </v>
   <v>       0.12544583       0.17326665       0.61221916 </v>
   <v>       0.87372723       0.04583173       0.61251044 </v>
   <v>       0.04081207       0.17308663       0.60988008 </v>
   <v>       0.95915095       0.13109584       0.61120985 </v>
   <v>       0.16597712       0.04789092       0.60936643 </v>
   <v>       0.55878129       0.19461547       0.49273903 </v>
   <v>       0.62776184       0.19158956       0.49208275 </v>
   <v>       0.63044932       0.44722142       0.48673895 </v>
   <v>       0.55828390       0.37808893       0.48653498 </v>
   <v>       0.81141275       0.37554133       0.48875034 </v>
   <v>       0.81447503       0.44765382       0.48621972 </v>
   <v>       0.37046481       0.25377216       0.55496430 </v>
   <v>       0.44641811       0.29162887       0.51285565 </v>
   <v>       0.75302010       0.12846419       0.55790758 </v>
   <v>       0.71476300       0.16603150       0.51554475 </v>
   <v>       0.12355890       0.37711224       0.55666653 </v>
   <v>       0.16140718       0.45322271       0.51460588 </v>
   <v>       0.24630822       0.29412319       0.57662447 </v>
   <v>       0.30572941       0.23887377       0.57387298 </v>
   <v>       0.76809653       0.07904738       0.57828845 </v>
   <v>       0.95890666       0.25210214       0.57954634 </v>
   <v>       0.07360530       0.31205733       0.57545622 </v>
   <v>       0.28721909       0.04774213       0.58241110 </v>
   <v>       0.65932134       0.25536234       0.29895389 </v>
   <v>       0.57380008       0.27437354       0.30732693 </v>
   <v>       0.59165170       0.34410473       0.29640142 </v>
   <v>       0.69619760       0.43043721       0.30436571 </v>
   <v>       0.74757816       0.41224791       0.29569863 </v>
   <v>       0.72881547       0.30772074       0.30699685 </v>
   <v>       0.71757073       0.55931011       0.50734497 </v>
   <v>       0.76935829       0.66842260       0.56708272 </v>
   <v>       0.55458516       0.84276183       0.51202491 </v>
   <v>       0.66401788       0.89950695       0.56991026 </v>
   <v>       0.16376567       0.72426729       0.51044799 </v>
   <v>       0.10581464       0.77609912       0.56607594 </v>
   <v>       0.95904622       0.83847071       0.61176316 </v>
   <v>       0.04069926       0.88063114       0.61163414 </v>
   <v>       0.83367216       0.96405883       0.61280211 </v>
   <v>       0.83297509       0.87846689       0.61210610 </v>
   <v>       0.87436739       0.83827016       0.61278646 </v>
   <v>       0.12589636       0.96611286       0.60893618 </v>
   <v>       0.44180814       0.81764567       0.49243938 </v>
   <v>       0.37305469       0.82110734       0.49152091 </v>
   <v>       0.37027334       0.56449375       0.48810611 </v>
   <v>       0.44233335       0.63374601       0.48739620 </v>
   <v>       0.18974446       0.63719858       0.49140427 </v>
   <v>       0.18666298       0.56505434       0.48980644 </v>
   <v>       0.87700589       0.63526416       0.55382763 </v>
   <v>       0.83963009       0.55954415       0.51034245 </v>
   <v>       0.62959763       0.75813040       0.55586534 </v>
   <v>       0.55366659       0.72016750       0.51373964 </v>
   <v>       0.24699651       0.88395289       0.55692451 </v>
   <v>       0.28579426       0.84660330       0.51598291 </v>
   <v>       0.04103230       0.76007960       0.57548740 </v>
   <v>       0.92637014       0.69988450       0.57357247 </v>
   <v>       0.71279957       0.96421311       0.58106255 </v>
   <v>       0.75330010       0.71750989       0.57784495 </v>
   <v>       0.69417026       0.77304895       0.57464068 </v>
   <v>       0.23185797       0.93288627       0.57892338 </v>
   <v>       0.34083202       0.75626037       0.29924517 </v>
   <v>       0.42623956       0.73699267       0.30793366 </v>
   <v>       0.40821530       0.66727533       0.29749791 </v>
   <v>       0.30375794       0.58084653       0.30635031 </v>
   <v>       0.25273131       0.59927307       0.29857395 </v>
   <v>       0.27126495       0.70387126       0.30830707 </v>
   <v>       0.25255022       0.16619137       0.59001269 </v>
   <v>       0.31726614       0.16659628       0.57328244 </v>
   <v>       0.25280411       0.10180082       0.59135035 </v>
   <v>       0.84080757       0.09866958       0.59274512 </v>
   <v>       0.84020374       0.16291294       0.57491143 </v>
   <v>       0.90507733       0.16356207       0.59217323 </v>
   <v>       0.09333974       0.25905134       0.59009648 </v>
   <v>       0.15764285       0.32411972       0.57352352 </v>
   <v>       0.15810028       0.25973106       0.59084148 </v>
   <v>       0.54017875       0.30870441       0.40621482 </v>
   <v>       0.49282378       0.25346877       0.47349747 </v>
   <v>       0.54148144       0.24493612       0.41121311 </v>
   <v>       0.76362933       0.46501641       0.40396485 </v>
   <v>       0.69853756       0.46357162       0.40708999 </v>
   <v>       0.69605848       0.24125937       0.40868709 </v>
   <v>       0.75230238       0.25026407       0.47430650 </v>
   <v>       0.75987998       0.30649461       0.41020532 </v>
   <v>       0.24564563       0.49978797       0.47363058 </v>
   <v>       0.36355617       0.18934070       0.55584745 </v>
   <v>       0.38582804       0.16551253       0.54451879 </v>
   <v>       0.42895549       0.18757881       0.52074642 </v>
   <v>       0.81729484       0.18626026       0.55736291 </v>
   <v>       0.84091404       0.23236746       0.54506156 </v>
   <v>       0.81861121       0.25311177       0.52108291 </v>
   <v>       0.18115269       0.37052984       0.55644624 </v>
   <v>       0.22724626       0.39301813       0.54467225 </v>
   <v>       0.24811211       0.43615191       0.52068783 </v>
   <v>       0.18290899       0.23630921       0.59430469 </v>
   <v>       0.16063944       0.19057440       0.60473871 </v>
   <v>       0.18372951       0.16854499       0.60428703 </v>
   <v>       0.83840130       0.02721225       0.60610550 </v>
   <v>       0.95338433       0.18857021       0.59529951 </v>
   <v>       0.97697749       0.16640932       0.60448166 </v>
   <v>       0.02214020       0.18972637       0.60369756 </v>
   <v>       0.22923988       0.05346207       0.59552462 </v>
   <v>       0.18337252       0.02996142       0.60381165 </v>
   <v>       0.64894099       0.22448606       0.39636726 </v>
   <v>       0.61885442       0.20450402       0.44921299 </v>
   <v>       0.58052818       0.20643302       0.44956607 </v>
   <v>       0.57061022       0.35570631       0.39245772 </v>
   <v>       0.58041264       0.38651867       0.44414376 </v>
   <v>       0.62072296       0.42493689       0.44422196 </v>
   <v>       0.78008286       0.43439736       0.39171748 </v>
   <v>       0.80088384       0.42510657       0.44423811 </v>
   <v>       0.79894395       0.38479399       0.44563295 </v>
   <v>       0.45022938       0.23238774       0.50810735 </v>
   <v>       0.42922641       0.25656689       0.52221954 </v>
   <v>       0.38676782       0.23510877       0.54550338 </v>
   <v>       0.77378197       0.22926769       0.50919387 </v>
   <v>       0.74983580       0.18412851       0.52434011 </v>
   <v>       0.77152089       0.16343126       0.54779668 </v>
   <v>       0.22443995       0.45725553       0.50856906 </v>
   <v>       0.17934265       0.43611601       0.52346855 </v>
   <v>       0.15849546       0.39359902       0.54673950 </v>
   <v>       0.22931028       0.19062169       0.59364792 </v>
   <v>       0.25177921       0.23694221       0.58443146 </v>
   <v>       0.22804714       0.25898124       0.58493570 </v>
   <v>       0.81638484       0.05086200       0.59662071 </v>
   <v>       0.77003264       0.02693808       0.58840395 </v>
   <v>       0.04561315       0.23547801       0.59396374 </v>
   <v>       0.02163697       0.25780947       0.58595801 </v>
   <v>       0.97582895       0.23385522       0.58680497 </v>
   <v>       0.25195689       0.03087709       0.58874075 </v>
   <v>       0.57122723       0.22798817       0.39836244 </v>
   <v>       0.59886020       0.24236796       0.34081580 </v>
   <v>       0.63696797       0.23981506       0.34054007 </v>
   <v>       0.65188417       0.43367212       0.39375399 </v>
   <v>       0.63889865       0.40533962       0.33699417 </v>
   <v>       0.59822953       0.36703426       0.33708593 </v>
   <v>       0.77659837       0.35306894       0.39575046 </v>
   <v>       0.76130583       0.36542341       0.33829092 </v>
   <v>       0.76381643       0.40613341       0.33698615 </v>
   <v>       0.90650098       0.75261099       0.59049660 </v>
   <v>       0.84231587       0.68757027       0.57304693 </v>
   <v>       0.84161001       0.75174111       0.59157635 </v>
   <v>       0.74735802       0.84569862       0.59114464 </v>
   <v>       0.68260087       0.84528712       0.57450046 </v>
   <v>       0.74701525       0.91007321       0.59280871 </v>
   <v>       0.15905738       0.91331533       0.59105889 </v>
   <v>       0.15976664       0.84911862       0.57340387 </v>
   <v>       0.09481153       0.84841692       0.58994858 </v>
   <v>       0.75526203       0.51247765       0.47017414 </v>
   <v>       0.45997331       0.70289901       0.40701484 </v>
   <v>       0.50716040       0.75817930       0.47439145 </v>
   <v>       0.45863513       0.76667079       0.41162908 </v>
   <v>       0.23712012       0.54714826       0.40746722 </v>
   <v>       0.30192088       0.54804402       0.40925993 </v>
   <v>       0.30449273       0.77103283       0.40901215 </v>
   <v>       0.24867220       0.76215533       0.47550807 </v>
   <v>       0.24090016       0.70569040       0.41185760 </v>
   <v>       0.81908944       0.64130989       0.55491923 </v>
   <v>       0.77300382       0.61860170       0.54317043 </v>
   <v>       0.75237797       0.57565065       0.51841822 </v>
   <v>       0.63626080       0.82245716       0.55733008 </v>
   <v>       0.61379984       0.84615601       0.54655152 </v>
   <v>       0.57071599       0.82404341       0.52256461 </v>
   <v>       0.18291594       0.82590754       0.55651908 </v>
   <v>       0.15957409       0.77975138       0.54480552 </v>
   <v>       0.18216262       0.75911865       0.52161916 </v>
   <v>       0.04651843       0.82338346       0.59344700 </v>
   <v>       0.02290264       0.84537267       0.60424105 </v>
   <v>       0.97773196       0.82195616       0.60428790 </v>
   <v>       0.77056212       0.95844383       0.59678869 </v>
   <v>       0.81632906       0.98197222       0.60630983 </v>
   <v>       0.81681318       0.77521753       0.59527986 </v>
   <v>       0.83915570       0.82098813       0.60552614 </v>
   <v>       0.81616812       0.84313853       0.60508882 </v>
   <v>       0.16129436       0.98472679       0.60353727 </v>
   <v>       0.35154317       0.78766759       0.39628087 </v>
   <v>       0.38178336       0.80785523       0.44888448 </v>
   <v>       0.41998085       0.80569481       0.44937103 </v>
   <v>       0.42962829       0.65587627       0.39338766 </v>
   <v>       0.42008071       0.62516918       0.44513882 </v>
   <v>       0.37983253       0.58669929       0.44550814 </v>
   <v>       0.22070171       0.57776672       0.39504550 </v>
   <v>       0.20010925       0.58736199       0.44752769 </v>
   <v>       0.20204617       0.62766682       0.44839532 </v>
   <v>       0.77631859       0.55494090       0.50535510 </v>
   <v>       0.82146357       0.57632817       0.51996500 </v>
   <v>       0.84204506       0.61863993       0.54409013 </v>
   <v>       0.54962656       0.77929172       0.50940841 </v>
   <v>       0.57074044       0.75520062       0.52335086 </v>
   <v>       0.61318798       0.77672038       0.54667031 </v>
   <v>       0.22701877       0.78313192       0.50993581 </v>
   <v>       0.25070102       0.82835229       0.52456275 </v>
   <v>       0.22871817       0.84892846       0.54724646 </v>
   <v>       0.95425995       0.77627798       0.59378649 </v>
   <v>       0.97829360       0.75414162       0.58404945 </v>
   <v>       0.02409543       0.77818298       0.58409245 </v>
   <v>       0.74795752       0.98105421       0.58865387 </v>
   <v>       0.77056768       0.82118786       0.59462889 </v>
   <v>       0.74803613       0.77484067       0.58547919 </v>
   <v>       0.77165976       0.75266701       0.58605127 </v>
   <v>       0.18342769       0.96110030       0.59516405 </v>
   <v>       0.22987134       0.98500294       0.58834657 </v>
   <v>       0.42903060       0.78374767       0.39848716 </v>
   <v>       0.40131279       0.76922576       0.34103832 </v>
   <v>       0.36329403       0.77195540       0.34066302 </v>
   <v>       0.34848779       0.57784267       0.39530170 </v>
   <v>       0.36119658       0.60607070       0.33844554 </v>
   <v>       0.40183060       0.64441556       0.33820910 </v>
   <v>       0.22417276       0.65906840       0.39801014 </v>
   <v>       0.23918339       0.64636397       0.34062694 </v>
   <v>       0.23669398       0.60565924       0.33986733 </v>
  </varray>
 </structure>
 <calculation>
  <scstep>
   <time name="dav"> 1500.49 1514.00</time>
   <time name="total"> 1500.86 1514.38</time>
   <energy>
    <i name="alphaZ">    187.14290207 </i>
    <i name="ewald"> 105429.41907795 </i>
    <i name="hartreedc">-138045.97505673 </i>
    <i name="XCdc">   3421.70387227 </i>
    <i name="pawpsdc">  88161.92874953 </i>
    <i name="pawaedc"> -88348.65400143 </i>
    <i name="eentropy">     -0.00000000 </i>
    <i name="bandstr"> -12178.01779852 </i>
    <i name="atom">  39394.06607532 </i>
    <i name="e_fr_energy">  -1978.38617954 </i>
    <i name="e_wo_entrp">  -1978.38617954 </i>
    <i name="e_0_energy">  -1978.38617954 </i>
   </energy>
  </scstep>
  <scstep>
   <time name="dav"> 1639.61 1654.46</time>
   <time name="total"> 1639.63 1654.49</time>
   <energy>
    <i name="e_fr_energy">  -1979.27234285 </i>
    <i name="e_wo_entrp">  -1979.27234285 </i>
    <i name="e_0_energy">  -1979.27234285 </i>
   </energy>
  </scstep>
  <scstep>
   <time name="dav"> 1917.04 1934.54</time>
   <time name="total"> 1917.06 1934.56</time>
   <energy>
    <i name="e_fr_energy">  -1979.30326826 </i>
    <i name="e_wo_entrp">  -1979.30326826 </i>
    <i name="e_0_energy">  -1979.30326826 </i>
   </energy>
  </scstep>
  <scstep>
[...]
       <r>    -1.6686     4.2201   980.4306 </r>
       <r>    -1.5666     3.1642   980.8229 </r>
       <r>    -1.4645    40.7716   985.0940 </r>
       <r>    -1.3625    18.4082   987.0453 </r>
       <r>    -1.2604    13.4172   988.7692 </r>
       <r>    -1.1584     4.5549   989.5982 </r>
       <r>    -1.0563    19.2896   991.7018 </r>
       <r>    -0.9543    20.2625   994.0011 </r>
       <r>    -0.8522    50.8070   999.6519 </r>
       <r>    -0.7502    98.8246  1011.8182 </r>
       <r>    -0.6482    42.0105  1017.3871 </r>
       <r>    -0.5461    96.3563  1030.0000 </r>
       <r>    -0.4441    10.6372  1031.0855 </r>
       <r>    -0.3420    11.0092  1032.9901 </r>
       <r>    -0.2400    29.9124  1036.4858 </r>
       <r>    -0.1379     3.3249  1037.3393 </r>
       <r>    -0.0359    70.1827  1045.2953 </r>
       <r>     0.0662    61.2284  1051.8815 </r>
       <r>     0.1682    46.2628  1057.5879 </r>
       <r>     0.2703    46.2155  1063.8496 </r>
       <r>     0.3723    74.3035  1073.2493 </r>
       <r>     0.4744    78.6617  1084.0271 </r>
       <r>     0.5764    59.7309  1092.1291 </r>
       <r>     0.6785    70.7684  1101.8552 </r>
       <r>     0.7805    67.5054  1111.4222 </r>
       <r>     0.8825   100.3538  1124.4410 </r>
       <r>     0.9846    81.3469  1135.9680 </r>
       <r>     1.0866   112.8948  1150.3207 </r>
       <r>     1.1887   143.7132  1167.6991 </r>
       <r>     1.2907   111.6468  1182.8601 </r>
       <r>     1.3928   135.2227  1200.6326 </r>
       <r>     1.4948   107.8485  1214.6058 </r>
       <r>     1.5969     5.2260  1216.0000 </r>
       <r>     1.6989     0.0000  1216.0000 </r>
       <r>     1.8010     0.0000  1216.0000 </r>
       <r>     1.9030     0.0000  1216.0000 </r>
       <r>     2.0051     0.0000  1216.0000 </r>
       <r>     2.1071     0.0000  1216.0000 </r>
       <r>     2.2091     0.0000  1216.0000 </r>
       <r>     2.3112     0.0000  1216.0000 </r>
       <r>     2.4132     0.0000  1216.0000 </r>
       <r>     2.5153     0.0000  1216.0000 </r>
       <r>     2.6173     0.0000  1216.0000 </r>
       <r>     2.7194     0.0000  1216.0000 </r>
       <r>     2.8214     0.0000  1216.0000 </r>
       <r>     2.9235     0.0000  1216.0000 </r>
      </set>
     </set>
    </array>
   </total>
  </dos>
 </calculation>
 <structure name="finalpos" >
  <crystal>
   <varray name="basis" >
    <v>      35.38366709      -0.01338377       0.00000000 </v>
    <v>     -17.70349245      30.57616722       0.00000000 </v>
    <v>       0.00000000       0.00000000      20.00000000 </v>
   </varray>
   <i name="volume">  21633.19964933 </i>
   <varray name="rec_basis" >
    <v>       0.02826782       0.01636697       0.00000000 </v>
    <v>       0.00001237       0.03271238       0.00000000 </v>
    <v>       0.00000000       0.00000000       0.05000000 </v>
   </varray>
  </crystal>
  <varray name="positions" >
   <v>       0.29609745       0.18931613       0.57875711 </v>
   <v>       0.29641879       0.12268439       0.58089960 </v>
   <v>       0.22968492       0.12220117       0.59602976 </v>
   <v>       0.81761424       0.11900122       0.58161615 </v>
   <v>       0.88412850       0.18615335       0.58123347 </v>
   <v>       0.88478343       0.12000720       0.59822144 </v>
   <v>       0.11371894       0.30267944       0.57890488 </v>
   <v>       0.18080137       0.30345033       0.58078668 </v>
   <v>       0.11456039       0.23636118       0.59584824 </v>
   <v>       0.51007076       0.29565010       0.45455869 </v>
   <v>       0.51209388       0.22962649       0.46108227 </v>
   <v>       0.55004064       0.28083018       0.37498890 </v>
   <v>       0.78041616       0.49539751       0.45204495 </v>
   <v>       0.71224004       0.49304917       0.45685344 </v>
   <v>       0.72614636       0.45500246       0.37183300 </v>
   <v>       0.70985973       0.22499940       0.45715436 </v>
   <v>       0.77601314       0.29320604       0.45994724 </v>
   <v>       0.72339687       0.27852316       0.37574771 </v>
   <v>       0.88621995       0.70904925       0.57882611 </v>
   <v>       0.81900268       0.70807846       0.58070425 </v>
   <v>       0.88513098       0.77511656       0.59691931 </v>
   <v>       0.70385955       0.82263289       0.57943612 </v>
   <v>       0.70338958       0.88918255       0.58233071 </v>
   <v>       0.77014111       0.88966759       0.59774834 </v>
   <v>       0.18231385       0.89299394       0.58046938 </v>
   <v>       0.11579445       0.82584964       0.57899907 </v>
   <v>       0.11507266       0.89196808       0.59599448 </v>
   <v>       0.49001283       0.71599207       0.45547620 </v>
   <v>       0.48793403       0.78201148       0.46160968 </v>
   <v>       0.45008483       0.73070418       0.37562980 </v>
   <v>       0.22077362       0.51733271       0.45637681 </v>
   <v>       0.28848270       0.51876084       0.45925668 </v>
   <v>       0.27412236       0.55652966       0.37439254 </v>
   <v>       0.29097498       0.78748261       0.45762012 </v>
   <v>       0.22518177       0.71908285       0.46201788 </v>
   <v>       0.27693495       0.73363993       0.37647765 </v>
   <v>       0.36681618       0.12212928       0.55383180 </v>
   <v>       0.88430438       0.25702841       0.55362567 </v>
   <v>       0.25176459       0.37421262       0.55369077 </v>
   <v>       0.29503738       0.26087647       0.57421683 </v>
   <v>       0.74605619       0.04628831       0.57932521 </v>
   <v>       0.04090224       0.30119813       0.57663981 </v>
   <v>       0.59202745       0.26218566       0.28840222 </v>
   <v>       0.66585637       0.41174348       0.28522960 </v>
   <v>       0.74072046       0.33788149       0.28702996 </v>
   <v>       0.74823700       0.63704819       0.55301225 </v>
   <v>       0.63261522       0.88947395       0.55656376 </v>
   <v>       0.11618775       0.75492529       0.55325979 </v>
   <v>       0.95911223       0.71085864       0.57375269 </v>
   <v>       0.70477207       0.75097475       0.57526751 </v>
   <v>       0.25392190       0.96563224       0.58048941 </v>
   <v>       0.40798951       0.74912265       0.28886826 </v>
   <v>       0.33401007       0.59955430       0.28695329 </v>
   <v>       0.25949178       0.67356984       0.28891905 </v>
   <v>       0.44498762       0.16879187       0.51000911 </v>
   <v>       0.33546678       0.11217808       0.56745894 </v>
   <v>       0.83721994       0.28790408       0.50955578 </v>
   <v>       0.89442518       0.23575616       0.56720709 </v>
   <v>       0.28287709       0.45232842       0.50936437 </v>
   <v>       0.23043217       0.34281100       0.56747843 </v>
   <v>       0.16706563       0.13324184       0.61148755 </v>
   <v>       0.12544583       0.17326665       0.61221916 </v>
   <v>       0.87372723       0.04583173       0.61251044 </v>
   <v>       0.04081207       0.17308663       0.60988008 </v>
   <v>       0.95915095       0.13109584       0.61120985 </v>
   <v>       0.16597712       0.04789092       0.60936643 </v>
   <v>       0.55878129       0.19461547       0.49273903 </v>
   <v>       0.62776184       0.19158956       0.49208275 </v>
   <v>       0.63044932       0.44722142       0.48673895 </v>
   <v>       0.55828390       0.37808893       0.48653498 </v>
   <v>       0.81141275       0.37554133       0.48875034 </v>
   <v>       0.81447503       0.44765382       0.48621972 </v>
   <v>       0.37046481       0.25377216       0.55496430 </v>
   <v>       0.44641811       0.29162887       0.51285565 </v>
   <v>       0.75302010       0.12846419       0.55790758 </v>
   <v>       0.71476300       0.16603150       0.51554475 </v>
   <v>       0.12355890       0.37711224       0.55666653 </v>
   <v>       0.16140718       0.45322271       0.51460588 </v>
   <v>       0.24630822       0.29412319       0.57662447 </v>
   <v>       0.30572941       0.23887377       0.57387298 </v>
   <v>       0.76809653       0.07904738       0.57828845 </v>
   <v>       0.95890666       0.25210214       0.57954634 </v>
   <v>       0.07360530       0.31205733       0.57545622 </v>
   <v>       0.28721909       0.04774213       0.58241110 </v>
   <v>       0.65932134       0.25536234       0.29895389 </v>
   <v>       0.57380008       0.27437354       0.30732693 </v>
   <v>       0.59165170       0.34410473       0.29640142 </v>
   <v>       0.69619760       0.43043721       0.30436571 </v>
   <v>       0.74757816       0.41224791       0.29569863 </v>
   <v>       0.72881547       0.30772074       0.30699685 </v>
   <v>       0.71757073       0.55931011       0.50734497 </v>
   <v>       0.76935829       0.66842260       0.56708272 </v>
   <v>       0.55458516       0.84276183       0.51202491 </v>
   <v>       0.66401788       0.89950695       0.56991026 </v>
   <v>       0.16376567       0.72426729       0.51044799 </v>
   <v>       0.10581464       0.77609912       0.56607594 </v>
   <v>       0.95904622       0.83847071       0.61176316 </v>
   <v>       0.04069926       0.88063114       0.61163414 </v>
   <v>       0.83367216       0.96405883       0.61280211 </v>
   <v>       0.83297509       0.87846689       0.61210610 </v>
   <v>       0.87436739       0.83827016       0.61278646 </v>
   <v>       0.12589636       0.96611286       0.60893618 </v>
   <v>       0.44180814       0.81764567       0.49243938 </v>
   <v>       0.37305469       0.82110734       0.49152091 </v>
   <v>       0.37027334       0.56449375       0.48810611 </v>
   <v>       0.44233335       0.63374601       0.48739620 </v>
   <v>       0.18974446       0.63719858       0.49140427 </v>
   <v>       0.18666298       0.56505434       0.48980644 </v>
   <v>       0.87700589       0.63526416       0.55382763 </v>
   <v>       0.83963009       0.55954415       0.51034245 </v>
   <v>       0.62959763       0.75813040       0.55586534 </v>
   <v>       0.55366659       0.72016750       0.51373964 </v>
   <v>       0.24699651       0.88395289       0.55692451 </v>
   <v>       0.28579426       0.84660330       0.51598291 </v>
   <v>       0.04103230       0.76007960       0.57548740 </v>
   <v>       0.92637014       0.69988450       0.57357247 </v>
   <v>       0.71279957       0.96421311       0.58106255 </v>
   <v>       0.75330010       0.71750989       0.57784495 </v>
   <v>       0.69417026       0.77304895       0.57464068 </v>
   <v>       0.23185797       0.93288627       0.57892338 </v>
   <v>       0.34083202       0.75626037       0.29924517 </v>
   <v>       0.42623956       0.73699267       0.30793366 </v>
   <v>       0.40821530       0.66727533       0.29749791 </v>
   <v>       0.30375794       0.58084653       0.30635031 </v>
   <v>       0.25273131       0.59927307       0.29857395 </v>
   <v>       0.27126495       0.70387126       0.30830707 </v>
   <v>       0.25255022       0.16619137       0.59001269 </v>
   <v>       0.31726614       0.16659628       0.57328244 </v>
   <v>       0.25280411       0.10180082       0.59135035 </v>
   <v>       0.84080757       0.09866958       0.59274512 </v>
   <v>       0.84020374       0.16291294       0.57491143 </v>
   <v>       0.90507733       0.16356207       0.59217323 </v>
   <v>       0.09333974       0.25905134       0.59009648 </v>
   <v>       0.15764285       0.32411972       0.57352352 </v>
   <v>       0.15810028       0.25973106       0.59084148 </v>
   <v>       0.54017875       0.30870441       0.40621482 </v>
   <v>       0.49282378       0.25346877       0.47349747 </v>
   <v>       0.54148144       0.24493612       0.41121311 </v>
   <v>       0.76362933       0.46501641       0.40396485 </v>
   <v>       0.69853756       0.46357162       0.40708999 </v>
   <v>       0.69605848       0.24125937       0.40868709 </v>
   <v>       0.75230238       0.25026407       0.47430650 </v>
   <v>       0.75987998       0.30649461       0.41020532 </v>
   <v>       0.24564563       0.49978797       0.47363058 </v>
   <v>       0.36355617       0.18934070       0.55584745 </v>
   <v>       0.38582804       0.16551253       0.54451879 </v>
   <v>       0.42895549       0.18757881       0.52074642 </v>
   <v>       0.81729484       0.18626026       0.55736291 </v>
   <v>       0.84091404       0.23236746       0.54506156 </v>
   <v>       0.81861121       0.25311177       0.52108291 </v>
   <v>       0.18115269       0.37052984       0.55644624 </v>
   <v>       0.22724626       0.39301813       0.54467225 </v>
   <v>       0.24811211       0.43615191       0.52068783 </v>
   <v>       0.18290899       0.23630921       0.59430469 </v>
   <v>       0.16063944       0.19057440       0.60473871 </v>
   <v>       0.18372951       0.16854499       0.60428703 </v>
   <v>       0.83840130       0.02721225       0.60610550 </v>
   <v>       0.95338433       0.18857021       0.59529951 </v>
   <v>       0.97697749       0.16640932       0.60448166 </v>
   <v>       0.02214020       0.18972637       0.60369756 </v>
   <v>       0.22923988       0.05346207       0.59552462 </v>
   <v>       0.18337252       0.02996142       0.60381165 </v>
   <v>       0.64894099       0.22448606       0.39636726 </v>
   <v>       0.61885442       0.20450402       0.44921299 </v>
   <v>       0.58052818       0.20643302       0.44956607 </v>
   <v>       0.57061022       0.35570631       0.39245772 </v>
   <v>       0.58041264       0.38651867       0.44414376 </v>
   <v>       0.62072296       0.42493689       0.44422196 </v>
   <v>       0.78008286       0.43439736       0.39171748 </v>
   <v>       0.80088384       0.42510657       0.44423811 </v>
   <v>       0.79894395       0.38479399       0.44563295 </v>
   <v>       0.45022938       0.23238774       0.50810735 </v>
   <v>       0.42922641       0.25656689       0.52221954 </v>
   <v>       0.38676782       0.23510877       0.54550338 </v>
   <v>       0.77378197       0.22926769       0.50919387 </v>
   <v>       0.74983580       0.18412851       0.52434011 </v>
   <v>       0.77152089       0.16343126       0.54779668 </v>
   <v>       0.22443995       0.45725553       0.50856906 </v>
   <v>       0.17934265       0.43611601       0.52346855 </v>
   <v>       0.15849546       0.39359902       0.54673950 </v>
   <v>       0.22931028       0.19062169       0.59364792 </v>
   <v>       0.25177921       0.23694221       0.58443146 </v>
   <v>       0.22804714       0.25898124       0.58493570 </v>
   <v>       0.81638484       0.05086200       0.59662071 </v>
   <v>       0.77003264       0.02693808       0.58840395 </v>
   <v>       0.04561315       0.23547801       0.59396374 </v>
   <v>       0.02163697       0.25780947       0.58595801 </v>
   <v>       0.97582895       0.23385522       0.58680497 </v>
   <v>       0.25195689       0.03087709       0.58874075 </v>
   <v>       0.57122723       0.22798817       0.39836244 </v>
   <v>       0.59886020       0.24236796       0.34081580 </v>
   <v>       0.63696797       0.23981506       0.34054007 </v>
   <v>       0.65188417       0.43367212       0.39375399 </v>
   <v>       0.63889865       0.40533962       0.33699417 </v>
   <v>       0.59822953       0.36703426       0.33708593 </v>
   <v>       0.77659837       0.35306894       0.39575046 </v>
   <v>       0.76130583       0.36542341       0.33829092 </v>
   <v>       0.76381643       0.40613341       0.33698615 </v>
   <v>       0.90650098       0.75261099       0.59049660 </v>
   <v>       0.84231587       0.68757027       0.57304693 </v>
   <v>       0.84161001       0.75174111       0.59157635 </v>
   <v>       0.74735802       0.84569862       0.59114464 </v>
   <v>       0.68260087       0.84528712       0.57450046 </v>
   <v>       0.74701525       0.91007321       0.59280871 </v>
   <v>       0.15905738       0.91331533       0.59105889 </v>
   <v>       0.15976664       0.84911862       0.57340387 </v>
   <v>       0.09481153       0.84841692       0.58994858 </v>
   <v>       0.75526203       0.51247765       0.47017414 </v>
   <v>       0.45997331       0.70289901       0.40701484 </v>
   <v>       0.50716040       0.75817930       0.47439145 </v>
   <v>       0.45863513       0.76667079       0.41162908 </v>
   <v>       0.23712012       0.54714826       0.40746722 </v>
   <v>       0.30192088       0.54804402       0.40925993 </v>
   <v>       0.30449273       0.77103283       0.40901215 </v>
   <v>       0.24867220       0.76215533       0.47550807 </v>
   <v>       0.24090016       0.70569040       0.41185760 </v>
   <v>       0.81908944       0.64130989       0.55491923 </v>
   <v>       0.77300382       0.61860170       0.54317043 </v>
   <v>       0.75237797       0.57565065       0.51841822 </v>
   <v>       0.63626080       0.82245716       0.55733008 </v>
   <v>       0.61379984       0.84615601       0.54655152 </v>
   <v>       0.57071599       0.82404341       0.52256461 </v>
   <v>       0.18291594       0.82590754       0.55651908 </v>
   <v>       0.15957409       0.77975138       0.54480552 </v>
   <v>       0.18216262       0.75911865       0.52161916 </v>
   <v>       0.04651843       0.82338346       0.59344700 </v>
   <v>       0.02290264       0.84537267       0.60424105 </v>
   <v>       0.97773196       0.82195616       0.60428790 </v>
   <v>       0.77056212       0.95844383       0.59678869 </v>
   <v>       0.81632906       0.98197222       0.60630983 </v>
   <v>       0.81681318       0.77521753       0.59527986 </v>
   <v>       0.83915570       0.82098813       0.60552614 </v>
   <v>       0.81616812       0.84313853       0.60508882 </v>
   <v>       0.16129436       0.98472679       0.60353727 </v>
   <v>       0.35154317       0.78766759       0.39628087 </v>
   <v>       0.38178336       0.80785523       0.44888448 </v>
   <v>       0.41998085       0.80569481       0.44937103 </v>
   <v>       0.42962829       0.65587627       0.39338766 </v>
   <v>       0.42008071       0.62516918       0.44513882 </v>
   <v>       0.37983253       0.58669929       0.44550814 </v>
   <v>       0.22070171       0.57776672       0.39504550 </v>
   <v>       0.20010925       0.58736199       0.44752769 </v>
   <v>       0.20204617       0.62766682       0.44839532 </v>
   <v>       0.77631859       0.55494090       0.50535510 </v>
   <v>       0.82146357       0.57632817       0.51996500 </v>
   <v>       0.84204506       0.61863993       0.54409013 </v>
   <v>       0.54962656       0.77929172       0.50940841 </v>
   <v>       0.57074044       0.75520062       0.52335086 </v>
   <v>       0.61318798       0.77672038       0.54667031 </v>
   <v>       0.22701877       0.78313192       0.50993581 </v>
   <v>       0.25070102       0.82835229       0.52456275 </v>
   <v>       0.22871817       0.84892846       0.54724646 </v>
   <v>       0.95425995       0.77627798       0.59378649 </v>
   <v>       0.97829360       0.75414162       0.58404945 </v>
   <v>       0.02409543       0.77818298       0.58409245 </v>
   <v>       0.74795752       0.98105421       0.58865387 </v>
   <v>       0.77056768       0.82118786       0.59462889 </v>
   <v>       0.74803613       0.77484067       0.58547919 </v>
   <v>       0.77165976       0.75266701       0.58605127 </v>
   <v>       0.18342769       0.96110030       0.59516405 </v>
   <v>       0.22987134       0.98500294       0.58834657 </v>
   <v>       0.42903060       0.78374767       0.39848716 </v>
   <v>       0.40131279       0.76922576       0.34103832 </v>
   <v>       0.36329403       0.77195540       0.34066302 </v>
   <v>       0.34848779       0.57784267       0.39530170 </v>
   <v>       0.36119658       0.60607070       0.33844554 </v>
   <v>       0.40183060       0.64441556       0.33820910 </v>
   <v>       0.22417276       0.65906840       0.39801014 </v>
   <v>       0.23918339       0.64636397       0.34062694 </v>
   <v>       0.23669398       0.60565924       0.33986733 </v>
  </varray>
 </structure>
</modeling>
