<?xml version="1.0" encoding="ISO-8859-1"?>
<modeling>
 <generator>
  <i name="program" type="string">vasp </i>
  <i name="version" type="string">5.4.4.18Apr17-6-g9f103f2a35  </i>
  <i name="subversion" type="string">(build Jun 07 2020 16:50:00) complex            parallel </i>
  <i name="platform" type="string">LinuxIFC </i>
  <i name="date" type="string">2023 02 03 </i>
  <i name="time" type="string">05:38:06 </i>
 </generator>
 <incar>
  <i type="string" name="SYSTEM">Simulation for cell shape cell volume r</i>
  <i type="int" name="ISTART">     1</i>
  <i type="string" name="PREC">high</i>
  <i type="string" name="ALGO">48</i>
  <i type="int" name="ICHARG">    11</i>
  <i type="int" name="NELM">   200</i>
  <i type="int" name="IBRION">    -1</i>
  <i name="EDIFF">      0.00001000</i>
  <i name="EDIFFG">     -0.01000000</i>
  <i type="int" name="NSW">     0</i>
  <i type="int" name="ISIF">     2</i>
  <i name="ENCUT">    500.00000000</i>
  <i name="POTIM">      0.30000000</i>
  <i type="string" name="LREAL">A</i>
  <i type="int" name="ISMEAR">     0</i>
  <i name="SIGMA">      0.01000000</i>
  <i type="int" name="NWRITE">     0</i>
  <i type="logical" name="LWAVE"> T  </i>
  <i type="logical" name="LCHARG"> T  </i>
  <v type="int" name="KPOINT_BSE">    -1     0     0     0</v>
  <i type="int" name="NELM">   200</i>
  <i type="string" name="GGA">PE</i>
 </incar>
 <structure name="primitive_cell" >
  <crystal>
   <varray name="basis" >
    <v>      28.92622254      -0.00152790       0.00000000 </v>
    <v>     -14.46432101      25.03743980       0.00000000 </v>
    <v>       0.00000000       0.00000000      20.00000000 </v>
   </varray>
   <i name="volume">  14484.32910579 </i>
   <varray name="rec_basis" >
    <v>       0.03457176       0.01997237       0.00000000 </v>
    <v>       0.00000211       0.03994140       0.00000000 </v>
    <v>       0.00000000       0.00000000       0.05000000 </v>
   </varray>
  </crystal>
  <varray name="positions" >
   <v>       0.22102205      -0.27880388       0.43847123 </v>
   <v>       0.24665998      -0.26956184       0.48239304 </v>
   <v>       0.29252206      -0.22236761       0.48280579 </v>
   <v>       0.23394604      -0.30697481      -0.46629820 </v>
   <v>       0.19841512      -0.36509164      -0.47455794 </v>
   <v>       0.15129444      -0.38642062       0.49378852 </v>
   <v>       0.32417064      -0.21348786      -0.46425490 </v>
   <v>       0.26501714      -0.28758679      -0.40778522 </v>
   <v>       0.31003766      -0.24085017      -0.40645393 </v>
   <v>       0.22037060      -0.39319699      -0.45048647 </v>
   <v>       0.12686888      -0.43988665       0.48683622 </v>
   <v>       0.25335602      -0.31144355      -0.36203433 </v>
   <v>       0.38315076      -0.17745127      -0.47324770 </v>
   <v>       0.19714619      -0.44391220      -0.47191283 </v>
   <v>       0.04442056      -0.43935986       0.46689793 </v>
   <v>       0.15006744      -0.46970780       0.49679717 </v>
   <v>       0.40449350      -0.13035658       0.49547013 </v>
   <v>       0.06828774      -0.46897405       0.47141468 </v>
   <v>       0.41055973      -0.20070803      -0.45166789 </v>
   <v>       0.23311398      -0.46692631      -0.46280332 </v>
   <v>      -0.00880532      -0.46600440       0.46812774 </v>
   <v>       0.45756723      -0.10709155       0.48587174 </v>
   <v>       0.46064230      -0.17875930      -0.47562506 </v>
   <v>       0.04392439       0.47743116       0.46874517 </v>
   <v>      -0.02899935      -0.44267771       0.46527350 </v>
   <v>       0.24147702      -0.49031840       0.48452410 </v>
   <v>       0.26087807      -0.45326526      -0.40527874 </v>
   <v>       0.48656346      -0.13152410       0.49297226 </v>
   <v>       0.48300839      -0.21448121      -0.46742949 </v>
   <v>       0.45808207      -0.02399784       0.46769374 </v>
   <v>       0.48720957      -0.04844141       0.47074180 </v>
   <v>       0.30742674      -0.45188134      -0.40685430 </v>
   <v>      -0.03857901       0.47807665       0.47437860 </v>
   <v>       0.28851032      -0.48927965       0.48385363 </v>
   <v>      -0.00927650       0.45137068       0.47013509 </v>
   <v>       0.47172334      -0.24509999      -0.40856537 </v>
   <v>       0.45997631      -0.23300770      -0.36281338 </v>
   <v>       0.32629098      -0.46428380      -0.46529862 </v>
   <v>      -0.49310062      -0.22788657       0.48099450 </v>
   <v>      -0.47721099      -0.20275703       0.43656030 </v>
   <v>       0.29727875       0.49381875       0.44005277 </v>
   <v>       0.33158661      -0.43936855      -0.36136194 </v>
   <v>       0.41245069      -0.39138981      -0.45096979 </v>
   <v>       0.47327334      -0.29019255      -0.40681087 </v>
   <v>      -0.49198338      -0.27385169       0.48179799 </v>
   <v>       0.48590072      -0.30493169      -0.46463255 </v>
   <v>      -0.02982695       0.40775832       0.46916828 </v>
   <v>       0.38435078      -0.44180701      -0.47400441 </v>
   <v>       0.48530069       0.02921400       0.46946755 </v>
   <v>      -0.45928118      -0.02460847       0.46684575 </v>
   <v>       0.46230068       0.04979211       0.46804197 </v>
   <v>      -0.09603636       0.44973810       0.48946282 </v>
   <v>       0.46303229      -0.36403594      -0.47285735 </v>
   <v>      -0.11955773       0.47962305       0.49823843 </v>
   <v>       0.40564021      -0.46789959       0.49497654 </v>
   <v>      -0.43262284       0.02863951       0.46865414 </v>
   <v>      -0.45872334       0.05844599       0.47462795 </v>
   <v>      -0.12086692       0.39604619       0.49659306 </v>
   <v>       0.48873744      -0.38555659       0.49615562 </v>
   <v>       0.45900863      -0.43874250       0.48719797 </v>
   <v>      -0.16776789       0.45351567      -0.47343938 </v>
   <v>      -0.38907296       0.04882843       0.46649495 </v>
   <v>      -0.20359368       0.47680509      -0.46509823 </v>
   <v>      -0.16918273       0.37444727      -0.47490113 </v>
   <v>      -0.42967440       0.11584502       0.49023910 </v>
   <v>      -0.21225192       0.49941645       0.48163336 </v>
   <v>      -0.45860144       0.14058426       0.49711070 </v>
   <v>      -0.19234283       0.40227034      -0.45394594 </v>
   <v>       0.48806829      -0.46828219       0.47171222 </v>
   <v>      -0.23106634       0.46387017      -0.40740360 </v>
   <v>      -0.37633432       0.13943929       0.49968464 </v>
   <v>       0.45845271       0.47819777       0.46719444 </v>
   <v>      -0.25931987       0.49832004       0.48085586 </v>
   <v>      -0.20483435       0.31635220      -0.46607334 </v>
   <v>      -0.19244100       0.28658602       0.43950399 </v>
   <v>      -0.43224804       0.18866558      -0.47369929 </v>
   <v>      -0.45836128      -0.43903978       0.46880558 </v>
   <v>      -0.49736148       0.21079033       0.44040179 </v>
   <v>      -0.26828093      -0.48541127       0.43657479 </v>
   <v>      -0.21785582       0.27823008       0.48348050 </v>
   <v>      -0.27765832       0.46237779      -0.40907615 </v>
   <v>      -0.22422971       0.32244666      -0.36226254 </v>
   <v>      -0.45489156       0.22412933      -0.46526980 </v>
   <v>      -0.48021178       0.23662524       0.48403485 </v>
   <v>      -0.35456398       0.18743830      -0.47142456 </v>
   <v>      -0.29681519       0.47399011      -0.46787102 </v>
   <v>      -0.23602927       0.29797727      -0.40749519 </v>
   <v>      -0.38148120       0.21173863      -0.45192579 </v>
   <v>       0.48513729       0.45165589       0.46827256 </v>
   <v>      -0.43226146      -0.46613092       0.46972656 </v>
   <v>      -0.30155710       0.45047313      -0.36336685 </v>
   <v>      -0.44217672       0.25565665      -0.40699939 </v>
   <v>       0.46183332       0.40810654       0.46563321 </v>
   <v>      -0.42951840       0.24420330      -0.36148100 </v>
   <v>      -0.48123543       0.28265733       0.48450231 </v>
   <v>      -0.26393102       0.23122363       0.48460005 </v>
   <v>      -0.45893206       0.47785091       0.47404674 </v>
   <v>      -0.38867566      -0.44301804       0.46831812 </v>
   <v>      -0.29552034       0.22332146      -0.46270623 </v>
   <v>      -0.28129298       0.25151994      -0.40553397 </v>
   <v>      -0.35497166       0.45134237      -0.47594208 </v>
   <v>      -0.44346449       0.30087400      -0.40572072 </v>
   <v>      -0.45739743       0.31470368      -0.46319971 </v>
   <v>      -0.37674834       0.47772936       0.49509782 </v>
   <v>      -0.38264303       0.40064676      -0.45384436 </v>
   <v>      -0.43049000       0.44882526       0.48892819 </v>
   <v>      -0.46030364       0.39550552       0.49867712 </v>
   <v>      -0.43402460       0.37373078      -0.47268537 </v>
  </varray>
 </structure>
 <varray name="primitive_index" >
  <v type="int" >        1 </v>
  <v type="int" >       61 </v>
  <v type="int" >       25 </v>
  <v type="int" >       62 </v>
  <v type="int" >       58 </v>
  <v type="int" >       22 </v>
  <v type="int" >       85 </v>
  <v type="int" >       59 </v>
  <v type="int" >       44 </v>
  <v type="int" >       23 </v>
  <v type="int" >       55 </v>
  <v type="int" >        2 </v>
  <v type="int" >       64 </v>
  <v type="int" >       57 </v>
  <v type="int" >       20 </v>
  <v type="int" >       21 </v>
  <v type="int" >       27 </v>
  <v type="int" >       56 </v>
  <v type="int" >       29 </v>
  <v type="int" >       60 </v>
  <v type="int" >       95 </v>
  <v type="int" >       65 </v>
  <v type="int" >       66 </v>
  <v type="int" >       19 </v>
  <v type="int" >       12 </v>
  <v type="int" >       26 </v>
  <v type="int" >       24 </v>
  <v type="int" >       28 </v>
  <v type="int" >      101 </v>
  <v type="int" >       42 </v>
  <v type="int" >       97 </v>
  <v type="int" >       88 </v>
  <v type="int" >       80 </v>
  <v type="int" >       63 </v>
  <v type="int" >       79 </v>
  <v type="int" >       86 </v>
  <v type="int" >        7 </v>
  <v type="int" >      102 </v>
  <v type="int" >      100 </v>
  <v type="int" >       15 </v>
  <v type="int" >        3 </v>
  <v type="int" >        8 </v>
  <v type="int" >       32 </v>
  <v type="int" >       45 </v>
  <v type="int" >       51 </v>
  <v type="int" >       87 </v>
  <v type="int" >        4 </v>
  <v type="int" >       69 </v>
  <v type="int" >       81 </v>
  <v type="int" >       49 </v>
  <v type="int" >        5 </v>
  <v type="int" >       71 </v>
  <v type="int" >       67 </v>
  <v type="int" >       33 </v>
  <v type="int" >       31 </v>
  <v type="int" >       96 </v>
  <v type="int" >       82 </v>
  <v type="int" >       34 </v>
  <v type="int" >       30 </v>
  <v type="int" >       68 </v>
  <v type="int" >       70 </v>
  <v type="int" >       13 </v>
  <v type="int" >       94 </v>
  <v type="int" >       72 </v>
  <v type="int" >       74 </v>
  <v type="int" >       54 </v>
  <v type="int" >       37 </v>
  <v type="int" >       35 </v>
  <v type="int" >       99 </v>
  <v type="int" >       48 </v>
  <v type="int" >       36 </v>
  <v type="int" >       43 </v>
  <v type="int" >      107 </v>
  <v type="int" >      104 </v>
  <v type="int" >       16 </v>
  <v type="int" >       75 </v>
  <v type="int" >       50 </v>
  <v type="int" >       17 </v>
  <v type="int" >       18 </v>
  <v type="int" >      103 </v>
  <v type="int" >       93 </v>
  <v type="int" >        9 </v>
  <v type="int" >      106 </v>
  <v type="int" >      105 </v>
  <v type="int" >       73 </v>
  <v type="int" >      108 </v>
  <v type="int" >       89 </v>
  <v type="int" >       38 </v>
  <v type="int" >       83 </v>
  <v type="int" >       98 </v>
  <v type="int" >       11 </v>
  <v type="int" >       91 </v>
  <v type="int" >        6 </v>
  <v type="int" >       10 </v>
  <v type="int" >       53 </v>
  <v type="int" >       52 </v>
  <v type="int" >       84 </v>
  <v type="int" >       14 </v>
  <v type="int" >       90 </v>
  <v type="int" >       46 </v>
  <v type="int" >       78 </v>
  <v type="int" >       47 </v>
  <v type="int" >       92 </v>
  <v type="int" >       40 </v>
  <v type="int" >       41 </v>
  <v type="int" >       77 </v>
  <v type="int" >       39 </v>
  <v type="int" >       76 </v>
 </varray>
 <kpoints>
  <generation param="listgenerated">
   <i name="divisions" type="int">      20 </i>
   <v>       0.00000000       0.00000000       0.00000000 </v>
   <v>       0.50000000       0.00000000       0.00000000 </v>
   <v>       0.33333333       0.33333333       0.00000000 </v>
   <v>       0.00000000       0.00000000       0.00000000 </v>
  </generation>
  <varray name="kpointlist" >
   <v>       0.00000000       0.00000000       0.00000000 </v>
   <v>       0.02631579       0.00000000       0.00000000 </v>
   <v>       0.05263158       0.00000000       0.00000000 </v>
   <v>       0.07894737       0.00000000       0.00000000 </v>
   <v>       0.10526316       0.00000000       0.00000000 </v>
   <v>       0.13157895       0.00000000       0.00000000 </v>
   <v>       0.15789474       0.00000000       0.00000000 </v>
   <v>       0.18421053       0.00000000       0.00000000 </v>
   <v>       0.21052632       0.00000000       0.00000000 </v>
   <v>       0.23684211       0.00000000       0.00000000 </v>
   <v>       0.26315789       0.00000000       0.00000000 </v>
   <v>       0.28947368       0.00000000       0.00000000 </v>
   <v>       0.31578947       0.00000000       0.00000000 </v>
   <v>       0.34210526       0.00000000       0.00000000 </v>
   <v>       0.36842105       0.00000000       0.00000000 </v>
   <v>       0.39473684       0.00000000       0.00000000 </v>
   <v>       0.42105263       0.00000000       0.00000000 </v>
   <v>       0.44736842       0.00000000       0.00000000 </v>
   <v>       0.47368421       0.00000000       0.00000000 </v>
   <v>       0.50000000       0.00000000       0.00000000 </v>
   <v>       0.50000000       0.00000000       0.00000000 </v>
   <v>       0.49122807       0.01754386       0.00000000 </v>
   <v>       0.48245614       0.03508772       0.00000000 </v>
   <v>       0.47368421       0.05263158       0.00000000 </v>
   <v>       0.46491228       0.07017544       0.00000000 </v>
   <v>       0.45614035       0.08771930       0.00000000 </v>
   <v>       0.44736842       0.10526316       0.00000000 </v>
   <v>       0.43859649       0.12280702       0.00000000 </v>
   <v>       0.42982456       0.14035088       0.00000000 </v>
   <v>       0.42105263       0.15789474       0.00000000 </v>
   <v>       0.41228070       0.17543860       0.00000000 </v>
   <v>       0.40350877       0.19298246       0.00000000 </v>
   <v>       0.39473684       0.21052632       0.00000000 </v>
   <v>       0.38596491       0.22807018       0.00000000 </v>
   <v>       0.37719298       0.24561404       0.00000000 </v>
   <v>       0.36842105       0.26315789       0.00000000 </v>
   <v>       0.35964912       0.28070175       0.00000000 </v>
   <v>       0.35087719       0.29824561       0.00000000 </v>
   <v>       0.34210526       0.31578947       0.00000000 </v>
   <v>       0.33333333       0.33333333       0.00000000 </v>
   <v>       0.33333333       0.33333333       0.00000000 </v>
   <v>       0.31578947       0.31578947       0.00000000 </v>
   <v>       0.29824561       0.29824561       0.00000000 </v>
   <v>       0.28070175       0.28070175       0.00000000 </v>
   <v>       0.26315789       0.26315789       0.00000000 </v>
   <v>       0.24561404       0.24561404       0.00000000 </v>
   <v>       0.22807018       0.22807018       0.00000000 </v>
   <v>       0.21052632       0.21052632       0.00000000 </v>
   <v>       0.19298246       0.19298246       0.00000000 </v>
   <v>       0.17543860       0.17543860       0.00000000 </v>
   <v>       0.15789474       0.15789474       0.00000000 </v>
   <v>       0.14035088       0.14035088       0.00000000 </v>
   <v>       0.12280702       0.12280702       0.00000000 </v>
   <v>       0.10526316       0.10526316       0.00000000 </v>
   <v>       0.08771930       0.08771930       0.00000000 </v>
   <v>       0.07017544       0.07017544       0.00000000 </v>
   <v>       0.05263158       0.05263158       0.00000000 </v>
   <v>       0.03508772       0.03508772       0.00000000 </v>
   <v>       0.01754386       0.01754386       0.00000000 </v>
   <v>       0.00000000       0.00000000       0.00000000 </v>
  </varray>
  <varray name="weights" >
   <v>       0.01666667 </v>
   <v>       0.01666667 </v>
   <v>       0.01666667 </v>
   <v>       0.01666667 </v>
   <v>       0.01666667 </v>
   <v>       0.01666667 </v>
   <v>       0.01666667 </v>
   <v>       0.01666667 </v>
   <v>       0.01666667 </v>
   <v>       0.01666667 </v>
   <v>       0.01666667 </v>
   <v>       0.01666667 </v>
   <v>       0.01666667 </v>
   <v>       0.01666667 </v>
   <v>       0.01666667 </v>
   <v>       0.01666667 </v>
   <v>       0.01666667 </v>
   <v>       0.01666667 </v>
   <v>       0.01666667 </v>
   <v>       0.01666667 </v>
   <v>       0.01666667 </v>
   <v>       0.01666667 </v>
   <v>       0.01666667 </v>
   <v>       0.01666667 </v>
   <v>       0.01666667 </v>
   <v>       0.01666667 </v>
   <v>       0.01666667 </v>
   <v>       0.01666667 </v>
   <v>       0.01666667 </v>
   <v>       0.01666667 </v>
   <v>       0.01666667 </v>
   <v>       0.01666667 </v>
   <v>       0.01666667 </v>
   <v>       0.01666667 </v>
   <v>       0.01666667 </v>
   <v>       0.01666667 </v>
   <v>       0.01666667 </v>
   <v>       0.01666667 </v>
   <v>       0.01666667 </v>
   <v>       0.01666667 </v>
   <v>       0.01666667 </v>
   <v>       0.01666667 </v>
   <v>       0.01666667 </v>
   <v>       0.01666667 </v>
   <v>       0.01666667 </v>
   <v>       0.01666667 </v>
   <v>       0.01666667 </v>
   <v>       0.01666667 </v>
   <v>       0.01666667 </v>
   <v>       0.01666667 </v>
   <v>       0.01666667 </v>
   <v>       0.01666667 </v>
   <v>       0.01666667 </v>
   <v>       0.01666667 </v>
   <v>       0.01666667 </v>
   <v>       0.01666667 </v>
   <v>       0.01666667 </v>
   <v>       0.01666667 </v>
   <v>       0.01666667 </v>
   <v>       0.01666667 </v>
  </varray>
 </kpoints>
 <parameters>
  <separator name="general" >
   <i type="string" name="SYSTEM">Simulation for cell shape cell volume r</i>
   <i type="logical" name="LCOMPAT"> F  </i>
  </separator>
  <separator name="electronic" >
   <i type="string" name="PREC">high</i>
   <i name="ENMAX">    500.00000000</i>
   <i name="ENAUG">    644.87300000</i>
   <i name="EDIFF">      0.00001000</i>
   <i type="int" name="IALGO">    38</i>
   <i type="int" name="IWAVPR">    10</i>
   <i type="int" name="NBANDS">   264</i>
   <i name="NELECT">    414.00000000</i>
   <i type="int" name="TURBO">     0</i>
   <i type="int" name="IRESTART">     0</i>
   <i type="int" name="NREBOOT">     0</i>
   <i type="int" name="NMIN">     0</i>
   <i name="EREF">      0.00000000</i>
   <separator name="electronic smearing" >
    <i type="int" name="ISMEAR">     0</i>
    <i name="SIGMA">      0.01000000</i>
    <i name="KSPACING">      0.50000000</i>
    <i type="logical" name="KGAMMA"> T  </i>
   </separator>
   <separator name="electronic projectors" >
    <i type="logical" name="LREAL"> T  </i>
    <v name="ROPT">     -0.00040000     -0.00040000     -0.00040000</v>
    <i type="int" name="LMAXPAW">  -100</i>
    <i type="int" name="LMAXMIX">     2</i>
    <i type="logical" name="NLSPLINE"> F  </i>
   </separator>
   <separator name="electronic startup" >
    <i type="int" name="ISTART">     1</i>
    <i type="int" name="ICHARG">    11</i>
    <i type="int" name="INIWAV">     1</i>
   </separator>
   <separator name="electronic spin" >
    <i type="int" name="ISPIN">     1</i>
    <i type="logical" name="LNONCOLLINEAR"> F  </i>
    <v name="MAGMOM">      1.00000000      1.00000000      1.00000000      1.00000000      1.00000000      1.00000000      1.00000000      1.00000000      1.00000000      1.00000000      1.00000000      1.00000000      1.00000000      1.00000000      1.00000000      1.00000000      1.00000000      1.00000000      1.00000000      1.00000000
      1.00000000      1.00000000      1.00000000      1.00000000      1.00000000      1.00000000      1.00000000      1.00000000      1.00000000      1.00000000      1.00000000      1.00000000      1.00000000      1.00000000      1.00000000      1.00000000      1.00000000      1.00000000      1.00000000      1.00000000
      1.00000000      1.00000000      1.00000000      1.00000000      1.00000000      1.00000000      1.00000000      1.00000000      1.00000000      1.00000000      1.00000000      1.00000000      1.00000000      1.00000000      1.00000000      1.00000000      1.00000000      1.00000000      1.00000000      1.00000000
      1.00000000      1.00000000      1.00000000      1.00000000      1.00000000      1.00000000      1.00000000      1.00000000      1.00000000      1.00000000      1.00000000      1.00000000      1.00000000      1.00000000      1.00000000      1.00000000      1.00000000      1.00000000      1.00000000      1.00000000
      1.00000000      1.00000000      1.00000000      1.00000000      1.00000000      1.00000000      1.00000000      1.00000000      1.00000000      1.00000000      1.00000000      1.00000000      1.00000000      1.00000000      1.00000000      1.00000000      1.00000000      1.00000000      1.00000000      1.00000000
      1.00000000      1.00000000      1.00000000      1.00000000      1.00000000      1.00000000      1.00000000      1.00000000</v>
    <i name="NUPDOWN">     -1.00000000</i>
    <i type="logical" name="LSORBIT"> F  </i>
    <v name="SAXIS">      0.00000000      0.00000000      1.00000000</v>
    <i type="logical" name="LSPIRAL"> F  </i>
    <v name="QSPIRAL">      0.00000000      0.00000000      0.00000000</v>
    <i type="logical" name="LZEROZ"> F  </i>
   </separator>
   <separator name="electronic exchange-correlation" >
    <i type="logical" name="LASPH"> F  </i>
    <i type="logical" name="LMETAGGA"> F  </i>
   </separator>
   <separator name="electronic convergence" >
    <i type="int" name="NELM">   200</i>
    <i type="int" name="NELMDL">     0</i>
    <i type="int" name="NELMIN">     2</i>
    <i name="ENINI">    500.00000000</i>
    <separator name="electronic convergence detail" >
     <i type="logical" name="LDIAG"> T  </i>
     <i type="logical" name="LSUBROT"> F  </i>
     <i name="WEIMIN">      0.00000000</i>
     <i name="EBREAK">      0.00000001</i>
     <i name="DEPER">      0.30000000</i>
     <i type="int" name="NRMM">     4</i>
     <i name="TIME">      0.40000000</i>
    </separator>
   </separator>
   <separator name="electronic mixer" >
    <i name="AMIX">      0.40000000</i>
    <i name="BMIX">      1.00000000</i>
    <i name="AMIN">      0.10000000</i>
    <i name="AMIX_MAG">      1.60000000</i>
    <i name="BMIX_MAG">      1.00000000</i>
    <separator name="electronic mixer details" >
     <i type="int" name="IMIX">     4</i>
     <i type="logical" name="MIXFIRST"> F  </i>
     <i type="int" name="MAXMIX">   -45</i>
     <i name="WC">    100.00000000</i>
     <i type="int" name="INIMIX">     1</i>
     <i type="int" name="MIXPRE">     1</i>
     <i type="int" name="MREMOVE">     5</i>
    </separator>
   </separator>
   <separator name="electronic dipolcorrection" >
    <i type="logical" name="LDIPOL"> F  </i>
    <i type="logical" name="LMONO"> F  </i>
    <i type="int" name="IDIPOL">     0</i>
    <i name="EPSILON">      1.00000000</i>
    <v name="DIPOL">   -100.00000000   -100.00000000   -100.00000000</v>
    <i name="EFIELD">      0.00000000</i>
   </separator>
  </separator>
  <separator name="grids" >
   <i type="int" name="NGX">   216</i>
   <i type="int" name="NGY">   216</i>
   <i type="int" name="NGZ">   150</i>
   <i type="int" name="NGXF">   320</i>
   <i type="int" name="NGYF">   320</i>
   <i type="int" name="NGZF">   224</i>
   <i type="logical" name="ADDGRID"> F  </i>
  </separator>
  <separator name="ionic" >
   <i type="int" name="NSW">     0</i>
   <i type="int" name="IBRION">    -1</i>
   <i type="int" name="MDALGO">     0</i>
   <i type="int" name="ISIF">     2</i>
   <i name="PSTRESS">      0.00000000</i>
   <i name="EDIFFG">     -0.01000000</i>
   <i type="int" name="NFREE">     0</i>
   <i name="POTIM">      0.30000000</i>
   <i name="SMASS">     -3.00000000</i>
   <i name="SCALEE">      1.00000000</i>
  </separator>
  <separator name="ionic md" >
   <i name="TEBEG">      0.00010000</i>
   <i name="TEEND">      0.00010000</i>
   <i type="int" name="NBLOCK">     1</i>
   <i type="int" name="KBLOCK">     1</i>
   <i type="int" name="NPACO">   256</i>
   <i name="APACO">     16.00000000</i>
  </separator>
  <separator name="symmetry" >
   <i type="int" name="ISYM">     2</i>
   <i name="SYMPREC">      0.00001000</i>
  </separator>
  <separator name="dos" >
   <i type="int" name="LORBIT">     0</i>
   <v name="RWIGS">     -1.00000000     -1.00000000     -1.00000000</v>
   <i type="int" name="NEDOS">   301</i>
   <i name="EMIN">     10.00000000</i>
   <i name="EMAX">    -10.00000000</i>
   <i name="EFERMI">      0.00000000</i>
  </separator>
  <separator name="writing" >
   <i type="int" name="NWRITE">     0</i>
   <i type="logical" name="LWAVE"> T  </i>
   <i type="logical" name="LDOWNSAMPLE"> F  </i>
   <i type="logical" name="LCHARG"> T  </i>
   <i type="logical" name="LPARD"> F  </i>
   <i type="logical" name="LVTOT"> F  </i>
   <i type="logical" name="LVHAR"> F  </i>
   <i type="logical" name="LELF"> F  </i>
   <i type="logical" name="LOPTICS"> F  </i>
   <v name="STM">      0.00000000      0.00000000      0.00000000      0.00000000      0.00000000      0.00000000      0.00000000</v>
  </separator>
  <separator name="performance" >
   <i type="int" name="NPAR">     8</i>
   <i type="int" name="NSIM">     4</i>
   <i type="int" name="NBLK">    -1</i>
   <i type="logical" name="LPLANE"> T  </i>
   <i type="logical" name="LSCALAPACK"> T  </i>
   <i type="logical" name="LSCAAWARE"> F  </i>
   <i type="logical" name="LSCALU"> F  </i>
   <i type="logical" name="LASYNC"> F  </i>
   <i type="logical" name="LORBITALREAL"> F  </i>
  </separator>
  <separator name="miscellaneous" >
   <i type="int" name="IDIOT">     3</i>
   <i type="int" name="ISPECIAL">     0</i>
   <i type="logical" name="LMUSIC"> F  </i>
   <v name="POMASS">      1.00000000     14.00100000     12.01100000</v>
   <v name="DARWINR">      0.00000000      0.00000000      0.00000000</v>
   <v name="DARWINV">      1.00000000      1.00000000      1.00000000</v>
   <i type="logical" name="LCORR"> T  </i>
  </separator>
  <i type="logical" name="GGA_COMPAT"> T  </i>
  <i type="logical" name="LBERRY"> F  </i>
  <i type="int" name="ICORELEVEL">     0</i>
  <i type="logical" name="LDAU"> F  </i>
  <i type="int" name="I_CONSTRAINED_M">     0</i>
  <separator name="electronic exchange-correlation" >
   <i type="string" name="GGA">PE</i>
   <i type="int" name="VOSKOWN">     0</i>
   <i type="logical" name="LHFCALC"> F  </i>
   <i type="string" name="PRECFOCK"></i>
   <i type="logical" name="LSYMGRAD"> F  </i>
   <i type="logical" name="LHFONE"> F  </i>
   <i type="logical" name="LRHFCALC"> F  </i>
   <i type="logical" name="LTHOMAS"> F  </i>
   <i type="logical" name="LMODELHF"> F  </i>
   <i name="ENCUT4O">     -1.00000000</i>
   <i type="int" name="EXXOEP">     0</i>
   <i type="int" name="FOURORBIT">     0</i>
   <i name="AEXX">      0.00000000</i>
   <i name="HFALPHA">      0.00000000</i>
   <i name="MCALPHA">      0.00000000</i>
   <i name="ALDAX">      1.00000000</i>
   <i name="AGGAX">      1.00000000</i>
   <i name="ALDAC">      1.00000000</i>
   <i name="AGGAC">      1.00000000</i>
   <i type="int" name="NKREDX">     1</i>
   <i type="int" name="NKREDY">     1</i>
   <i type="int" name="NKREDZ">     1</i>
   <i type="logical" name="SHIFTRED"> F  </i>
   <i type="logical" name="ODDONLY"> F  </i>
   <i type="logical" name="EVENONLY"> F  </i>
   <i type="int" name="LMAXFOCK">     0</i>
   <i type="int" name="NMAXFOCKAE">     0</i>
   <i type="logical" name="LFOCKAEDFT"> F  </i>
   <i name="HFSCREEN">      0.00000000</i>
   <i name="HFSCREENC">      0.00000000</i>
   <i type="int" name="NBANDSGWLOW">     0</i>
  </separator>
  <separator name="vdW DFT" >
   <i type="logical" name="LUSE_VDW"> F  </i>
   <i name="Zab_VDW">     -0.84910000</i>
   <i name="PARAM1">      0.12340000</i>
   <i name="PARAM2">      1.00000000</i>
   <i name="PARAM3">      0.00000000</i>
  </separator>
  <separator name="model GW" >
   <i type="int" name="MODEL_GW">     0</i>
   <i name="MODEL_EPS0">     80.46849503</i>
   <i name="MODEL_ALPHA">      1.00000000</i>
  </separator>
  <separator name="linear response parameters" >
   <i type="logical" name="LEPSILON"> F  </i>
   <i type="logical" name="LRPA"> F  </i>
   <i type="logical" name="LNABLA"> F  </i>
   <i type="logical" name="LVEL"> F  </i>
   <i type="int" name="KINTER">     0</i>
   <i name="CSHIFT">      0.10000000</i>
   <i name="OMEGAMAX">     -1.00000000</i>
   <i name="DEG_THRESHOLD">      0.00200000</i>
   <i name="RTIME">     -0.10000000</i>
   <i name="WPLASMAI">      0.00000000</i>
   <v name="DFIELD">      0.00000000      0.00000000      0.00000000</v>
   <v name="WPLASMA">      0.00000000      0.00000000      0.00000000      0.00000000      0.00000000      0.00000000      0.00000000      0.00000000      0.00000000</v>
  </separator>
  <separator name="orbital magnetization" >
   <i type="logical" name="NUCIND"> F  </i>
   <v name="MAGPOS">      0.00000000      0.00000000      0.00000000</v>
   <i type="logical" name="LNICSALL"> T  </i>
   <i type="logical" name="ORBITALMAG"> F  </i>
   <i type="logical" name="LMAGBLOCH"> F  </i>
   <i type="logical" name="LCHIMAG"> F  </i>
   <i type="logical" name="LGAUGE"> T  </i>
   <i type="int" name="MAGATOM">     0</i>
   <v name="MAGDIPOL">      0.00000000      0.00000000      0.00000000</v>
   <v name="AVECCONST">      0.00000000      0.00000000      0.00000000</v>
  </separator>
  <separator name="response functions" >
   <i type="logical" name="LADDER"> F  </i>
   <i type="logical" name="LRPAFORCE"> F  </i>
   <i type="logical" name="LFXC"> F  </i>
   <i type="logical" name="LHARTREE"> T  </i>
   <i type="int" name="IBSE">     0</i>
   <v type="int" name="KPOINT">    -1     0     0     0</v>
   <i type="logical" name="LTCTE"> F  </i>
   <i type="logical" name="LTETE"> F  </i>
   <i type="logical" name="LTRIPLET"> F  </i>
   <i type="logical" name="LFXCEPS"> F  </i>
   <i type="logical" name="LFXHEG"> F  </i>
   <i type="int" name="NATURALO">     2</i>
   <i type="logical" name="L2ORDER"> F  </i>
   <i type="logical" name="LMP2LT"> F  </i>
   <i type="logical" name="LUSEW"> F  </i>
   <i name="ENCUTGW">     -2.00000000</i>
   <i name="ENCUTGWSOFT">     -2.00000000</i>
   <i name="ENCUTLF">     -1.00000000</i>
   <i type="int" name="LMAXMP2">    -1</i>
   <i name="SCISSOR">      0.00000000</i>
   <i type="int" name="NOMEGA">     0</i>
   <i type="int" name="NOMEGAR">     0</i>
   <i type="int" name="NBANDSGW">    -1</i>
   <i type="int" name="NBANDSO">    -1</i>
   <i type="int" name="NBANDSV">    -1</i>
   <i type="int" name="NELM">   200</i>
   <i type="int" name="NELMHF">     1</i>
   <i type="int" name="DIM">     3</i>
   <i type="int" name="ANTIRES">     0</i>
   <i name="OMEGAMAX">    -30.00000000</i>
   <i name="OMEGAMIN">    -30.00000000</i>
   <i name="OMEGATL">   -200.00000000</i>
   <i type="int" name="OMEGAGRID">   140</i>
   <i name="CSHIFT">     -0.10000000</i>
   <i type="logical" name="SELFENERGY"> F  </i>
   <i type="logical" name="LSPECTRAL"> F  </i>
   <i type="logical" name="LSPECTRALGW"> F  </i>
   <i type="logical" name="LSINGLES"> F  </i>
   <i type="logical" name="LFERMIGW"> F  </i>
   <i type="logical" name="ODDONLYGW"> F  </i>
   <i type="logical" name="EVENONLYGW"> F  </i>
   <i type="int" name="NKREDLFX">     1</i>
   <i type="int" name="NKREDLFY">     1</i>
   <i type="int" name="NKREDLFZ">     1</i>
   <i type="int" name="MAXMEM">  2800</i>
   <i type="int" name="TELESCOPE">     0</i>
   <i type="int" name="TAUPAR">     1</i>
   <i type="int" name="OMEGAPAR">    -1</i>
   <i name="LAMBDA">      1.00000000</i>
  </separator>
  <separator name="External order field" >
   <i name="OFIELD_KAPPA">      0.00000000</i>
   <v name="OFIELD_K">      0.00000000      0.00000000      0.00000000</v>
   <i name="OFIELD_Q6_NEAR">      0.00000000</i>
   <i name="OFIELD_Q6_FAR">      0.00000000</i>
   <i name="OFIELD_A">      0.00000000</i>
  </separator>
  <separator name="solvation model" >
   <i type="logical" name="LSOL"> F  </i>
  </separator>
 </parameters>
 <atominfo>
  <atoms>     108 </atoms>
  <types>       3 </types>
  <array name="atoms" >
   <dimension dim="1">ion</dimension>
   <field type="string">element</field>
   <field type="int">atomtype</field>
   <set>
    <rc><c>H </c><c>   1</c></rc>
    <rc><c>H </c><c>   1</c></rc>
    <rc><c>H </c><c>   1</c></rc>
    <rc><c>H </c><c>   1</c></rc>
    <rc><c>H </c><c>   1</c></rc>
    <rc><c>H </c><c>   1</c></rc>
    <rc><c>H </c><c>   1</c></rc>
    <rc><c>H </c><c>   1</c></rc>
    <rc><c>H </c><c>   1</c></rc>
    <rc><c>H </c><c>   1</c></rc>
    <rc><c>H </c><c>   1</c></rc>
    <rc><c>H </c><c>   1</c></rc>
    <rc><c>H </c><c>   1</c></rc>
    <rc><c>H </c><c>   1</c></rc>
    <rc><c>H </c><c>   1</c></rc>
    <rc><c>H </c><c>   1</c></rc>
    <rc><c>H </c><c>   1</c></rc>
    <rc><c>H </c><c>   1</c></rc>
    <rc><c>N </c><c>   2</c></rc>
    <rc><c>N </c><c>   2</c></rc>
    <rc><c>N </c><c>   2</c></rc>
    <rc><c>N </c><c>   2</c></rc>
    <rc><c>N </c><c>   2</c></rc>
    <rc><c>N </c><c>   2</c></rc>
    <rc><c>N </c><c>   2</c></rc>
    <rc><c>N </c><c>   2</c></rc>
    <rc><c>N </c><c>   2</c></rc>
    <rc><c>N </c><c>   2</c></rc>
    <rc><c>N </c><c>   2</c></rc>
    <rc><c>N </c><c>   2</c></rc>
    <rc><c>N </c><c>   2</c></rc>
    <rc><c>N </c><c>   2</c></rc>
    <rc><c>N </c><c>   2</c></rc>
    <rc><c>N </c><c>   2</c></rc>
    <rc><c>N </c><c>   2</c></rc>
    <rc><c>N </c><c>   2</c></rc>
    <rc><c>N </c><c>   2</c></rc>
    <rc><c>N </c><c>   2</c></rc>
    <rc><c>N </c><c>   2</c></rc>
    <rc><c>N </c><c>   2</c></rc>
    <rc><c>N </c><c>   2</c></rc>
    <rc><c>N </c><c>   2</c></rc>
    <rc><c>N </c><c>   2</c></rc>
    <rc><c>N </c><c>   2</c></rc>
    <rc><c>N </c><c>   2</c></rc>
    <rc><c>N </c><c>   2</c></rc>
    <rc><c>N </c><c>   2</c></rc>
    <rc><c>N </c><c>   2</c></rc>
    <rc><c>N </c><c>   2</c></rc>
    <rc><c>N </c><c>   2</c></rc>
    <rc><c>N </c><c>   2</c></rc>
    <rc><c>N </c><c>   2</c></rc>
    <rc><c>N </c><c>   2</c></rc>
    <rc><c>N </c><c>   2</c></rc>
    <rc><c>C </c><c>   3</c></rc>
    <rc><c>C </c><c>   3</c></rc>
    <rc><c>C </c><c>   3</c></rc>
    <rc><c>C </c><c>   3</c></rc>
    <rc><c>C </c><c>   3</c></rc>
    <rc><c>C </c><c>   3</c></rc>
    <rc><c>C </c><c>   3</c></rc>
    <rc><c>C </c><c>   3</c></rc>
    <rc><c>C </c><c>   3</c></rc>
    <rc><c>C </c><c>   3</c></rc>
    <rc><c>C </c><c>   3</c></rc>
    <rc><c>C </c><c>   3</c></rc>
    <rc><c>C </c><c>   3</c></rc>
    <rc><c>C </c><c>   3</c></rc>
    <rc><c>C </c><c>   3</c></rc>
    <rc><c>C </c><c>   3</c></rc>
    <rc><c>C </c><c>   3</c></rc>
    <rc><c>C </c><c>   3</c></rc>
    <rc><c>C </c><c>   3</c></rc>
    <rc><c>C </c><c>   3</c></rc>
    <rc><c>C </c><c>   3</c></rc>
    <rc><c>C </c><c>   3</c></rc>
    <rc><c>C </c><c>   3</c></rc>
    <rc><c>C </c><c>   3</c></rc>
    <rc><c>C </c><c>   3</c></rc>
    <rc><c>C </c><c>   3</c></rc>
    <rc><c>C </c><c>   3</c></rc>
    <rc><c>C </c><c>   3</c></rc>
    <rc><c>C </c><c>   3</c></rc>
    <rc><c>C </c><c>   3</c></rc>
    <rc><c>C </c><c>   3</c></rc>
    <rc><c>C </c><c>   3</c></rc>
    <rc><c>C </c><c>   3</c></rc>
    <rc><c>C </c><c>   3</c></rc>
    <rc><c>C </c><c>   3</c></rc>
    <rc><c>C </c><c>   3</c></rc>
    <rc><c>C </c><c>   3</c></rc>
    <rc><c>C </c><c>   3</c></rc>
    <rc><c>C </c><c>   3</c></rc>
    <rc><c>C </c><c>   3</c></rc>
    <rc><c>C </c><c>   3</c></rc>
    <rc><c>C </c><c>   3</c></rc>
    <rc><c>C </c><c>   3</c></rc>
    <rc><c>C </c><c>   3</c></rc>
    <rc><c>C </c><c>   3</c></rc>
    <rc><c>C </c><c>   3</c></rc>
    <rc><c>C </c><c>   3</c></rc>
    <rc><c>C </c><c>   3</c></rc>
    <rc><c>C </c><c>   3</c></rc>
    <rc><c>C </c><c>   3</c></rc>
    <rc><c>C </c><c>   3</c></rc>
    <rc><c>C </c><c>   3</c></rc>
    <rc><c>C </c><c>   3</c></rc>
    <rc><c>C </c><c>   3</c></rc>
   </set>
  </array>
  <array name="atomtypes" >
   <dimension dim="1">type</dimension>
   <field type="int">atomspertype</field>
   <field type="string">element</field>
   <field>mass</field>
   <field>valence</field>
   <field type="string">pseudopotential</field>
   <set>
    <rc><c>  18</c><c>H </c><c>      1.00000000</c><c>      1.00000000</c><c>  PAW_PBE H 15Jun2001                   </c></rc>
    <rc><c>  36</c><c>N </c><c>     14.00100000</c><c>      5.00000000</c><c>  PAW_PBE N 08Apr2002                   </c></rc>
    <rc><c>  54</c><c>C </c><c>     12.01100000</c><c>      4.00000000</c><c>  PAW_PBE C 08Apr2002                   </c></rc>
   </set>
  </array>
 </atominfo>
 <structure name="initialpos" >
  <crystal>
   <varray name="basis" >
    <v>      28.92622254      -0.00152790       0.00000000 </v>
    <v>     -14.46432101      25.03743980       0.00000000 </v>
    <v>       0.00000000       0.00000000      20.00000000 </v>
   </varray>
   <i name="volume">  14484.32910579 </i>
   <varray name="rec_basis" >
    <v>       0.03457176       0.01997237       0.00000000 </v>
    <v>       0.00000211       0.03994140       0.00000000 </v>
    <v>       0.00000000       0.00000000       0.05000000 </v>
   </varray>
  </crystal>
  <varray name="positions" >
   <v>       0.22102205       0.72119612       0.43847123 </v>
   <v>       0.25335602       0.68855645       0.63796567 </v>
   <v>       0.29727875       0.49381875       0.44005277 </v>
   <v>       0.97017305       0.40775832       0.46916828 </v>
   <v>       0.46230068       0.04979211       0.46804197 </v>
   <v>       0.46183332       0.40810654       0.46563321 </v>
   <v>       0.45997631       0.76699230       0.63718662 </v>
   <v>       0.33158661       0.56063145       0.63863806 </v>
   <v>       0.77577029       0.32244666       0.63773746 </v>
   <v>       0.57048160       0.24420330       0.63851900 </v>
   <v>       0.69844290       0.45047313       0.63663315 </v>
   <v>       0.97100065       0.55732229       0.46527350 </v>
   <v>       0.61092704       0.04882843       0.46649495 </v>
   <v>       0.61132434       0.55698196       0.46831812 </v>
   <v>       0.52278901       0.79724297       0.43656030 </v>
   <v>       0.80755900       0.28658602       0.43950399 </v>
   <v>       0.50263852       0.21079033       0.44040179 </v>
   <v>       0.73171907       0.51458873       0.43657479 </v>
   <v>       0.04392439       0.47743116       0.46874517 </v>
   <v>       0.04442056       0.56064014       0.46689793 </v>
   <v>       0.15006744       0.53029220       0.49679717 </v>
   <v>       0.15129444       0.61357938       0.49378852 </v>
   <v>       0.22037060       0.60680301       0.54951353 </v>
   <v>       0.26087807       0.54673474       0.59472126 </v>
   <v>       0.29252206       0.77763239       0.48280579 </v>
   <v>       0.24147702       0.50968160       0.48452410 </v>
   <v>       0.40449350       0.86964342       0.49547013 </v>
   <v>       0.48656346       0.86847590       0.49297226 </v>
   <v>       0.41055973       0.79929197       0.54833211 </v>
   <v>       0.48873744       0.61444341       0.49615562 </v>
   <v>       0.40564021       0.53210041       0.49497654 </v>
   <v>       0.41245069       0.60861019       0.54903021 </v>
   <v>       0.88044227       0.47962305       0.49823843 </v>
   <v>       0.87913308       0.39604619       0.49659306 </v>
   <v>       0.80765717       0.40227034       0.54605406 </v>
   <v>       0.62366568       0.13943929       0.49968464 </v>
   <v>       0.54139856       0.14058426       0.49711070 </v>
   <v>       0.61851880       0.21173863       0.54807421 </v>
   <v>       0.53969636       0.39550552       0.49867712 </v>
   <v>       0.62325166       0.47772936       0.49509782 </v>
   <v>       0.61735697       0.40064676       0.54615564 </v>
   <v>       0.45808207       0.97600216       0.46769374 </v>
   <v>       0.45845271       0.47819777       0.46719444 </v>
   <v>       0.31003766       0.75914983       0.59354607 </v>
   <v>       0.47327334       0.70980745       0.59318913 </v>
   <v>       0.71870702       0.25151994       0.59446603 </v>
   <v>       0.55653551       0.30087400       0.59427928 </v>
   <v>       0.76893366       0.46387017       0.59259640 </v>
   <v>       0.54071882       0.97539153       0.46684575 </v>
   <v>       0.54163872       0.56096022       0.46880558 </v>
   <v>       0.50801662       0.72614831       0.48179799 </v>
   <v>       0.73606898       0.23122363       0.48460005 </v>
   <v>       0.51876457       0.28265733       0.48450231 </v>
   <v>       0.78774808       0.49941645       0.48163336 </v>
   <v>       0.12686888       0.56011335       0.48683622 </v>
   <v>       0.06828774       0.53102595       0.47141468 </v>
   <v>       0.19714619       0.55608780       0.52808717 </v>
   <v>       0.19841512       0.63490836       0.52544206 </v>
   <v>       0.26501714       0.71241321       0.59221478 </v>
   <v>       0.23311398       0.53307369       0.53719668 </v>
   <v>       0.24665998       0.73043816       0.48239304 </v>
   <v>       0.23394604       0.69302519       0.53370180 </v>
   <v>       0.28851032       0.51072035       0.48385363 </v>
   <v>       0.38315076       0.82254873       0.52675230 </v>
   <v>       0.45756723       0.89290845       0.48587174 </v>
   <v>       0.46064230       0.82124070       0.52437494 </v>
   <v>       0.46303229       0.63596406       0.52714265 </v>
   <v>       0.45900863       0.56125750       0.48719797 </v>
   <v>       0.38435078       0.55819299       0.52599559 </v>
   <v>       0.83223211       0.45351567       0.52656062 </v>
   <v>       0.90396364       0.44973810       0.48946282 </v>
   <v>       0.83081727       0.37444727       0.52509887 </v>
   <v>       0.64543602       0.18743830       0.52857544 </v>
   <v>       0.57032560       0.11584502       0.49023910 </v>
   <v>       0.56775196       0.18866558       0.52630071 </v>
   <v>       0.56597540       0.37373078       0.52731463 </v>
   <v>       0.56951000       0.44882526       0.48892819 </v>
   <v>       0.64502834       0.45134237       0.52405792 </v>
   <v>       0.99072350       0.45137068       0.47013509 </v>
   <v>       0.96142099       0.47807665       0.47437860 </v>
   <v>       0.48530069       0.02921400       0.46946755 </v>
   <v>       0.54127666       0.05844599       0.47462795 </v>
   <v>       0.48513729       0.45165589       0.46827256 </v>
   <v>       0.54106794       0.47785091       0.47404674 </v>
   <v>       0.32417064       0.78651214       0.53574510 </v>
   <v>       0.47172334       0.75490001       0.59143463 </v>
   <v>       0.48590072       0.69506831       0.53536745 </v>
   <v>       0.30742674       0.54811866       0.59314570 </v>
   <v>       0.76397073       0.29797727       0.59250481 </v>
   <v>       0.70447966       0.22332146       0.53729377 </v>
   <v>       0.55782328       0.25565665       0.59300061 </v>
   <v>       0.54260257       0.31470368       0.53680029 </v>
   <v>       0.72234168       0.46237779       0.59092385 </v>
   <v>       0.79640632       0.47680509       0.53490177 </v>
   <v>       0.99119468       0.53399560       0.46812774 </v>
   <v>       0.56737716       0.02863951       0.46865414 </v>
   <v>       0.48720957       0.95155859       0.47074180 </v>
   <v>       0.56773854       0.53386908       0.46972656 </v>
   <v>       0.48806829       0.53171781       0.47171222 </v>
   <v>       0.50689938       0.77211343       0.48099450 </v>
   <v>       0.48300839       0.78551879       0.53257051 </v>
   <v>       0.32629098       0.53571620       0.53470138 </v>
   <v>       0.78214418       0.27823008       0.48348050 </v>
   <v>       0.79516565       0.31635220       0.53392666 </v>
   <v>       0.51978822       0.23662524       0.48403485 </v>
   <v>       0.54510844       0.22412933       0.53473020 </v>
   <v>       0.74068013       0.49832004       0.48085586 </v>
   <v>       0.70318481       0.47399011       0.53212898 </v>
  </varray>
 </structure>
 <calculation>
  <scstep>
   <time name="dav">  616.15  622.58</time>
   <time name="total">  616.37  622.82</time>
   <energy>
    <i name="alphaZ">     55.12450920 </i>
    <i name="ewald">  56016.03372682 </i>
    <i name="hartreedc"> -70425.12174205 </i>
    <i name="XCdc">   1519.97052746 </i>
    <i name="pawpsdc">  41134.49596920 </i>
    <i name="pawaedc"> -41221.36400616 </i>
    <i name="eentropy">     -0.00000000 </i>
    <i name="bandstr">  -5609.82081149 </i>
    <i name="atom">  17694.02508872 </i>
    <i name="e_fr_energy">   -836.65673830 </i>
    <i name="e_wo_entrp">   -836.65673830 </i>
    <i name="e_0_energy">   -836.65673830 </i>
   </energy>
  </scstep>
  <scstep>
   <time name="dav">  677.43  684.44</time>
   <time name="total">  677.43  684.44</time>
   <energy>
    <i name="e_fr_energy">   -837.26771382 </i>
    <i name="e_wo_entrp">   -837.26771382 </i>
    <i name="e_0_energy">   -837.26771382 </i>
   </energy>
  </scstep>
  <scstep>
   <time name="dav">  807.55  815.92</time>
   <time name="total">  807.55  815.92</time>
   <energy>
    <i name="e_fr_energy">   -837.28534635 </i>
    <i name="e_wo_entrp">   -837.28534635 </i>
    <i name="e_0_energy">   -837.28534635 </i>
   </energy>
  </scstep>
  <scstep>
   <time name="dav">  675.74  682.92</time>
   <time name="total">  675.74  682.92</time>
   <energy>
    <i name="e_fr_energy">   -837.28556074 </i>
    <i name="e_wo_entrp">   -837.28556074 </i>
    <i name="e_0_energy">   -837.28556074 </i>
   </energy>
  </scstep>
  <scstep>
   <time name="dav">  598.01  604.23</time>
   <time name="total">  598.01  604.23</time>
   <energy>
    <i name="e_fr_energy">   -837.28557124 </i>
    <i name="e_wo_entrp">   -837.28557124 </i>
    <i name="e_0_energy">   -837.28557124 </i>
   </energy>
  </scstep>
  <scstep>
   <time name="dav">  485.26  490.27</time>
   <time name="total">  485.27  490.28</time>
   <energy>
    <i name="alphaZ">     55.12450920 </i>
    <i name="ewald">  56016.03372682 </i>
    <i name="hartreedc"> -70425.12174205 </i>
    <i name="XCdc">   1519.97052746 </i>
    <i name="pawpsdc">  41134.49596920 </i>
    <i name="pawaedc"> -41221.36400616 </i>
    <i name="eentropy">     -0.00000000 </i>
    <i name="bandstr">  -5610.44964471 </i>
    <i name="atom">  17694.02508872 </i>
    <i name="e_fr_energy">   -837.28557152 </i>
    <i name="e_wo_entrp">   -837.28557152 </i>
    <i name="e_0_energy">   -837.28557152 </i>
   </energy>
  </scstep>
  <structure>
   <crystal>
    <varray name="basis" >
     <v>      28.92622254      -0.00152790       0.00000000 </v>
     <v>     -14.46432101      25.03743980       0.00000000 </v>
     <v>       0.00000000       0.00000000      20.00000000 </v>
    </varray>
    <i name="volume">  14484.32910579 </i>
    <varray name="rec_basis" >
     <v>       0.03457176       0.01997237       0.00000000 </v>
     <v>       0.00000211       0.03994140       0.00000000 </v>
     <v>       0.00000000       0.00000000       0.05000000 </v>
    </varray>
   </crystal>
   <varray name="positions" >
    <v>       0.22102205       0.72119612       0.43847123 </v>
    <v>       0.25335602       0.68855645       0.63796567 </v>
    <v>       0.29727875       0.49381875       0.44005277 </v>
    <v>       0.97017305       0.40775832       0.46916828 </v>
    <v>       0.46230068       0.04979211       0.46804197 </v>
    <v>       0.46183332       0.40810654       0.46563321 </v>
    <v>       0.45997631       0.76699230       0.63718662 </v>
    <v>       0.33158661       0.56063145       0.63863806 </v>
    <v>       0.77577029       0.32244666       0.63773746 </v>
    <v>       0.57048160       0.24420330       0.63851900 </v>
    <v>       0.69844290       0.45047313       0.63663315 </v>
    <v>       0.97100065       0.55732229       0.46527350 </v>
    <v>       0.61092704       0.04882843       0.46649495 </v>
    <v>       0.61132434       0.55698196       0.46831812 </v>
    <v>       0.52278901       0.79724297       0.43656030 </v>
    <v>       0.80755900       0.28658602       0.43950399 </v>
    <v>       0.50263852       0.21079033       0.44040179 </v>
    <v>       0.73171907       0.51458873       0.43657479 </v>
    <v>       0.04392439       0.47743116       0.46874517 </v>
    <v>       0.04442056       0.56064014       0.46689793 </v>
    <v>       0.15006744       0.53029220       0.49679717 </v>
    <v>       0.15129444       0.61357938       0.49378852 </v>
    <v>       0.22037060       0.60680301       0.54951353 </v>
    <v>       0.26087807       0.54673474       0.59472126 </v>
    <v>       0.29252206       0.77763239       0.48280579 </v>
    <v>       0.24147702       0.50968160       0.48452410 </v>
    <v>       0.40449350       0.86964342       0.49547013 </v>
    <v>       0.48656346       0.86847590       0.49297226 </v>
    <v>       0.41055973       0.79929197       0.54833211 </v>
    <v>       0.48873744       0.61444341       0.49615562 </v>
    <v>       0.40564021       0.53210041       0.49497654 </v>
    <v>       0.41245069       0.60861019       0.54903021 </v>
    <v>       0.88044227       0.47962305       0.49823843 </v>
    <v>       0.87913308       0.39604619       0.49659306 </v>
    <v>       0.80765717       0.40227034       0.54605406 </v>
    <v>       0.62366568       0.13943929       0.49968464 </v>
    <v>       0.54139856       0.14058426       0.49711070 </v>
    <v>       0.61851880       0.21173863       0.54807421 </v>
    <v>       0.53969636       0.39550552       0.49867712 </v>
    <v>       0.62325166       0.47772936       0.49509782 </v>
    <v>       0.61735697       0.40064676       0.54615564 </v>
    <v>       0.45808207       0.97600216       0.46769374 </v>
    <v>       0.45845271       0.47819777       0.46719444 </v>
    <v>       0.31003766       0.75914983       0.59354607 </v>
    <v>       0.47327334       0.70980745       0.59318913 </v>
    <v>       0.71870702       0.25151994       0.59446603 </v>
    <v>       0.55653551       0.30087400       0.59427928 </v>
    <v>       0.76893366       0.46387017       0.59259640 </v>
    <v>       0.54071882       0.97539153       0.46684575 </v>
    <v>       0.54163872       0.56096022       0.46880558 </v>
    <v>       0.50801662       0.72614831       0.48179799 </v>
    <v>       0.73606898       0.23122363       0.48460005 </v>
    <v>       0.51876457       0.28265733       0.48450231 </v>
    <v>       0.78774808       0.49941645       0.48163336 </v>
    <v>       0.12686888       0.56011335       0.48683622 </v>
    <v>       0.06828774       0.53102595       0.47141468 </v>
    <v>       0.19714619       0.55608780       0.52808717 </v>
    <v>       0.19841512       0.63490836       0.52544206 </v>
    <v>       0.26501714       0.71241321       0.59221478 </v>
    <v>       0.23311398       0.53307369       0.53719668 </v>
    <v>       0.24665998       0.73043816       0.48239304 </v>
    <v>       0.23394604       0.69302519       0.53370180 </v>
    <v>       0.28851032       0.51072035       0.48385363 </v>
    <v>       0.38315076       0.82254873       0.52675230 </v>
    <v>       0.45756723       0.89290845       0.48587174 </v>
    <v>       0.46064230       0.82124070       0.52437494 </v>
    <v>       0.46303229       0.63596406       0.52714265 </v>
    <v>       0.45900863       0.56125750       0.48719797 </v>
    <v>       0.38435078       0.55819299       0.52599559 </v>
    <v>       0.83223211       0.45351567       0.52656062 </v>
    <v>       0.90396364       0.44973810       0.48946282 </v>
    <v>       0.83081727       0.37444727       0.52509887 </v>
    <v>       0.64543602       0.18743830       0.52857544 </v>
    <v>       0.57032560       0.11584502       0.49023910 </v>
    <v>       0.56775196       0.18866558       0.52630071 </v>
    <v>       0.56597540       0.37373078       0.52731463 </v>
    <v>       0.56951000       0.44882526       0.48892819 </v>
    <v>       0.64502834       0.45134237       0.52405792 </v>
    <v>       0.99072350       0.45137068       0.47013509 </v>
    <v>       0.96142099       0.47807665       0.47437860 </v>
    <v>       0.48530069       0.02921400       0.46946755 </v>
    <v>       0.54127666       0.05844599       0.47462795 </v>
    <v>       0.48513729       0.45165589       0.46827256 </v>
    <v>       0.54106794       0.47785091       0.47404674 </v>
    <v>       0.32417064       0.78651214       0.53574510 </v>
    <v>       0.47172334       0.75490001       0.59143463 </v>
    <v>       0.48590072       0.69506831       0.53536745 </v>
    <v>       0.30742674       0.54811866       0.59314570 </v>
    <v>       0.76397073       0.29797727       0.59250481 </v>
    <v>       0.70447966       0.22332146       0.53729377 </v>
    <v>       0.55782328       0.25565665       0.59300061 </v>
    <v>       0.54260257       0.31470368       0.53680029 </v>
    <v>       0.72234168       0.46237779       0.59092385 </v>
    <v>       0.79640632       0.47680509       0.53490177 </v>
    <v>       0.99119468       0.53399560       0.46812774 </v>
    <v>       0.56737716       0.02863951       0.46865414 </v>
    <v>       0.48720957       0.95155859       0.47074180 </v>
    <v>       0.56773854       0.53386908       0.46972656 </v>
    <v>       0.48806829       0.53171781       0.47171222 </v>
    <v>       0.50689938       0.77211343       0.48099450 </v>
    <v>       0.48300839       0.78551879       0.53257051 </v>
    <v>       0.32629098       0.53571620       0.53470138 </v>
    <v>       0.78214418       0.27823008       0.48348050 </v>
    <v>       0.79516565       0.31635220       0.53392666 </v>
    <v>       0.51978822       0.23662524       0.48403485 </v>
    <v>       0.54510844       0.22412933       0.53473020 </v>
    <v>       0.74068013       0.49832004       0.48085586 </v>
    <v>       0.70318481       0.47399011       0.53212898 </v>
   </varray>
  </structure>
  <varray name="forces" >
   <v>      -0.00039166       0.00239131      -0.00160198 </v>
   <v>      -0.00081940       0.00290553      -0.00117911 </v>
   <v>       0.00082026      -0.00051858      -0.00213729 </v>
   <v>       0.00247690       0.00306376      -0.00307788 </v>
   <v>      -0.00055627       0.00159370       0.00008874 </v>
   <v>      -0.00220309      -0.00152722      -0.00524356 </v>
   <v>       0.00076014       0.00215321       0.00213765 </v>
   <v>      -0.00036823      -0.00090480       0.00219104 </v>
   <v>       0.00103133      -0.00076637       0.00268917 </v>
   <v>       0.00057674      -0.00217925       0.00159387 </v>
   <v>       0.00137104       0.00020398       0.00030321 </v>
   <v>       0.00087713       0.00141799      -0.00065404 </v>
   <v>       0.00134222      -0.00421317      -0.00454059 </v>
   <v>      -0.00215701      -0.00108962       0.00307324 </v>
   <v>       0.00380274      -0.00016252       0.00049955 </v>
   <v>       0.00228434       0.00430865       0.00026647 </v>
   <v>       0.00171027       0.00125651       0.00101198 </v>
   <v>      -0.00102950      -0.00201674      -0.00192585 </v>
   <v>       0.00057812      -0.00700946       0.00035665 </v>
   <v>       0.00321125       0.00338290      -0.00068046 </v>
   <v>       0.00063828       0.00031608      -0.00112277 </v>
   <v>      -0.00226835      -0.00066342      -0.00108321 </v>
   <v>       0.00300704       0.00015712       0.00233193 </v>
   <v>       0.00161577       0.00042569      -0.00293682 </v>
   <v>       0.00219668       0.00191373       0.00172865 </v>
   <v>      -0.00007553       0.00084192       0.00476500 </v>
   <v>      -0.00275817       0.00182461       0.00105764 </v>
   <v>       0.00078124       0.00384765      -0.00317036 </v>
   <v>       0.00010074      -0.00299971       0.00014935 </v>
   <v>      -0.00245538      -0.00306668       0.00315523 </v>
   <v>      -0.00129230       0.00352460       0.00014795 </v>
   <v>       0.00041196       0.00286644       0.00216669 </v>
   <v>      -0.00066102       0.00136149       0.00025282 </v>
   <v>       0.00099706      -0.00065710      -0.00204163 </v>
   <v>      -0.00375155      -0.00278416      -0.00012763 </v>
   <v>       0.00198888      -0.00378822      -0.00165844 </v>
   <v>      -0.00046596       0.00375634       0.00090848 </v>
   <v>       0.00090256      -0.00000240       0.00628585 </v>
   <v>      -0.00378547       0.00743265       0.00241505 </v>
   <v>       0.00182036      -0.00515921      -0.00051617 </v>
   <v>      -0.00284909       0.00047797       0.00045513 </v>
   <v>      -0.00013351       0.00021052      -0.00414033 </v>
   <v>      -0.00247975       0.00289165       0.00249269 </v>
   <v>       0.00070859      -0.00145506       0.00039171 </v>
   <v>      -0.00214187      -0.00200465       0.00037384 </v>
   <v>       0.00241397      -0.00105427      -0.00188456 </v>
   <v>       0.00065773       0.00048729       0.00207741 </v>
   <v>       0.00070680       0.00161971      -0.00288999 </v>
   <v>      -0.00252316      -0.00280593      -0.00323399 </v>
   <v>       0.00125387      -0.00009335      -0.00083399 </v>
   <v>       0.00059687      -0.00009363       0.00062519 </v>
   <v>       0.00187513      -0.00061228      -0.00039395 </v>
   <v>       0.00021012       0.00049284      -0.00116706 </v>
   <v>      -0.00199144      -0.00036412      -0.00393810 </v>
   <v>       0.00206320       0.00028012       0.00272571 </v>
   <v>      -0.00188354       0.00320102      -0.00022576 </v>
   <v>      -0.00151458      -0.00111457       0.00028071 </v>
   <v>      -0.00112975       0.00149035       0.00252478 </v>
   <v>       0.00046287      -0.00006033       0.00097633 </v>
   <v>      -0.00311112      -0.00111078       0.00043872 </v>
   <v>       0.00031259       0.00143370      -0.00020971 </v>
   <v>       0.00062991       0.00098009      -0.00291288 </v>
   <v>      -0.00091502      -0.00092985       0.00332630 </v>
   <v>      -0.00193222       0.00065784      -0.00095958 </v>
   <v>      -0.00006584       0.00164073      -0.00161861 </v>
   <v>       0.00263737       0.00067152      -0.00201665 </v>
   <v>      -0.00075531      -0.00116949       0.00403201 </v>
   <v>      -0.00025349       0.00323092       0.00456899 </v>
   <v>      -0.00089350      -0.00216062       0.00154988 </v>
   <v>       0.00050560       0.00353002      -0.00097972 </v>
   <v>      -0.00056726      -0.00011869       0.00140137 </v>
   <v>       0.00057273      -0.00244660       0.00058425 </v>
   <v>      -0.00174450       0.00118756       0.00300347 </v>
   <v>       0.00175043      -0.00110564       0.00206973 </v>
   <v>       0.00196984      -0.00261318       0.00146723 </v>
   <v>       0.00186699      -0.00168977       0.00276245 </v>
   <v>      -0.00144503      -0.00718827      -0.00218048 </v>
   <v>       0.00004965       0.00125298      -0.00312806 </v>
   <v>       0.00156209      -0.00515393      -0.00079020 </v>
   <v>      -0.00038473       0.00038921       0.00092525 </v>
   <v>      -0.00062088      -0.00058099      -0.00270258 </v>
   <v>       0.00278144       0.00078646      -0.00206910 </v>
   <v>       0.00132335      -0.00043168      -0.00306141 </v>
   <v>      -0.00248041      -0.00372605      -0.00423177 </v>
   <v>      -0.00126048       0.00181586      -0.00302927 </v>
   <v>      -0.00086037       0.00205640      -0.00212556 </v>
   <v>      -0.00180174      -0.00379011       0.00118608 </v>
   <v>       0.00021172      -0.00077625       0.00129199 </v>
   <v>       0.00082091      -0.00088720      -0.00051822 </v>
   <v>       0.00069678       0.00215972       0.00099585 </v>
   <v>      -0.00162014       0.00127467       0.00029563 </v>
   <v>       0.00149244      -0.00241919       0.00207429 </v>
   <v>      -0.00154938      -0.00005115      -0.00086307 </v>
   <v>      -0.00237339      -0.00139279       0.00003319 </v>
   <v>      -0.00100691      -0.00315583      -0.00020294 </v>
   <v>      -0.00015204      -0.00023848      -0.00345161 </v>
   <v>      -0.00086961      -0.00049144      -0.00451920 </v>
   <v>      -0.00251480       0.00249021      -0.00155983 </v>
   <v>      -0.00459367      -0.00119668       0.00229202 </v>
   <v>       0.00203677       0.00087235      -0.00065401 </v>
   <v>       0.00127591       0.00103150       0.00074774 </v>
   <v>      -0.00175617      -0.00010038       0.00188900 </v>
   <v>       0.00195400       0.00223923       0.00152381 </v>
   <v>       0.00170826       0.00242104       0.00207920 </v>
   <v>       0.00074939       0.00289082       0.00119372 </v>
   <v>       0.00287160      -0.00218571       0.00043255 </v>
   <v>      -0.00078608      -0.00180849      -0.00110604 </v>
   <v>       0.00196770       0.00097589       0.00263159 </v>
  </varray>
  <varray name="stress" >
   <v>      -0.00081039       0.00401132       0.01200455 </v>
   <v>       0.00401133       0.00032909      -0.00872835 </v>
   <v>       0.01200455      -0.00872835      -0.14853973 </v>
  </varray>
  <energy>
   <i name="e_fr_energy">   -839.46180956 </i>
   <i name="e_wo_entrp">   -839.46180956 </i>
   <i name="e_0_energy">     -0.00000000 </i>
  </energy>
  <time name="totalsc"> 5241.29 5305.03</time>
  <eigenvalues>
   <array>
    <dimension dim="1">band</dimension>
    <dimension dim="2">kpoint</dimension>
    <dimension dim="3">spin</dimension>
    <field>eigene</field>
    <field>occ</field>
    <set>
     <set comment="spin 1">
      <set comment="kpoint 1">
       <r>  -26.1703    1.0000 </r>
       <r>  -26.1401    1.0000 </r>
       <r>  -26.1377    1.0000 </r>
       <r>  -25.8593    1.0000 </r>
       <r>  -25.8335    1.0000 </r>
       <r>  -25.8291    1.0000 </r>
       <r>  -25.1609    1.0000 </r>
       <r>  -25.1596    1.0000 </r>
       <r>  -25.0987    1.0000 </r>
       <r>  -24.9664    1.0000 </r>
       <r>  -24.9579    1.0000 </r>
       <r>  -24.9572    1.0000 </r>
       <r>  -24.7785    1.0000 </r>
       <r>  -24.7767    1.0000 </r>
       <r>  -24.6941    1.0000 </r>
       <r>  -23.1341    1.0000 </r>
       <r>  -23.1319    1.0000 </r>
       <r>  -23.1261    1.0000 </r>
       <r>  -23.0168    1.0000 </r>
       <r>  -22.9610    1.0000 </r>
       <r>  -22.9576    1.0000 </r>
       <r>  -22.7723    1.0000 </r>
       <r>  -22.7331    1.0000 </r>
       <r>  -22.7291    1.0000 </r>
       <r>  -22.6170    1.0000 </r>
       <r>  -22.6152    1.0000 </r>
       <r>  -22.6138    1.0000 </r>
       <r>  -22.5552    1.0000 </r>
       <r>  -22.5549    1.0000 </r>
       <r>  -22.5288    1.0000 </r>
       <r>  -22.3538    1.0000 </r>
       <r>  -22.3289    1.0000 </r>
       <r>  -22.3288    1.0000 </r>
       <r>  -22.2004    1.0000 </r>
       <r>  -22.1995    1.0000 </r>
       <r>  -22.1712    1.0000 </r>
       <r>  -20.5271    1.0000 </r>
       <r>  -20.3149    1.0000 </r>
       <r>  -20.3143    1.0000 </r>
       <r>  -20.2691    1.0000 </r>
       <r>  -20.2683    1.0000 </r>
       <r>  -20.2643    1.0000 </r>
       <r>  -20.1602    1.0000 </r>
       <r>  -19.9610    1.0000 </r>
       <r>  -19.9606    1.0000 </r>
       <r>  -18.4944    1.0000 </r>
       <r>  -18.4920    1.0000 </r>
       <r>  -18.2782    1.0000 </r>
       <r>  -18.1993    1.0000 </r>
       <r>  -18.1983    1.0000 </r>
       <r>  -17.9728    1.0000 </r>
       <r>  -17.9720    1.0000 </r>
       <r>  -17.6214    1.0000 </r>
       <r>  -17.1645    1.0000 </r>
       <r>  -17.0739    1.0000 </r>
       <r>  -16.8244    1.0000 </r>
       <r>  -16.8224    1.0000 </r>
       <r>  -16.8141    1.0000 </r>
       <r>  -16.6481    1.0000 </r>
       <r>  -16.5849    1.0000 </r>
       <r>  -16.5813    1.0000 </r>
       <r>  -16.5313    1.0000 </r>
       <r>  -16.5298    1.0000 </r>
       <r>  -16.3261    1.0000 </r>
       <r>  -16.2572    1.0000 </r>
       <r>  -16.2541    1.0000 </r>
       <r>  -16.1087    1.0000 </r>
       <r>  -15.9758    1.0000 </r>
       <r>  -15.7048    1.0000 </r>
       <r>  -15.7034    1.0000 </r>
       <r>  -15.4180    1.0000 </r>
       <r>  -15.4174    1.0000 </r>
       <r>  -15.2380    1.0000 </r>
       <r>  -15.0565    1.0000 </r>
       <r>  -15.0556    1.0000 </r>
       <r>  -14.4203    1.0000 </r>
       <r>  -14.4188    1.0000 </r>
       <r>  -14.1887    1.0000 </r>
       <r>  -13.9425    1.0000 </r>
       <r>  -13.9194    1.0000 </r>
       <r>  -13.9178    1.0000 </r>
       <r>  -13.8688    1.0000 </r>
       <r>  -13.8675    1.0000 </r>
       <r>  -13.7161    1.0000 </r>
       <r>  -13.7055    1.0000 </r>
       <r>  -13.7040    1.0000 </r>
       <r>  -13.6035    1.0000 </r>
       <r>  -13.2488    1.0000 </r>
       <r>  -13.0904    1.0000 </r>
       <r>  -13.0859    1.0000 </r>
       <r>  -12.9483    1.0000 </r>
       <r>  -12.7642    1.0000 </r>
       <r>  -12.7613    1.0000 </r>
       <r>  -12.7092    1.0000 </r>
       <r>  -12.7049    1.0000 </r>
       <r>  -12.6879    1.0000 </r>
       <r>  -12.5723    1.0000 </r>
       <r>  -12.4822    1.0000 </r>
       <r>  -12.4775    1.0000 </r>
       <r>  -12.3083    1.0000 </r>
       <r>  -12.3060    1.0000 </r>
       <r>  -12.0803    1.0000 </r>
       <r>  -12.0747    1.0000 </r>
       <r>  -12.0711    1.0000 </r>
       <r>  -11.8921    1.0000 </r>
       <r>  -11.8901    1.0000 </r>
       <r>  -11.8843    1.0000 </r>
       <r>  -11.6175    1.0000 </r>
       <r>  -11.5946    1.0000 </r>
       <r>  -11.5908    1.0000 </r>
       <r>  -11.3521    1.0000 </r>
       <r>  -11.1528    1.0000 </r>
       <r>  -11.0377    1.0000 </r>
       <r>  -11.0295    1.0000 </r>
       <r>  -10.9814    1.0000 </r>
       <r>  -10.9792    1.0000 </r>
       <r>  -10.9169    1.0000 </r>
       <r>  -10.8370    1.0000 </r>
       <r>  -10.7693    1.0000 </r>
       <r>  -10.7654    1.0000 </r>
       <r>  -10.6253    1.0000 </r>
       <r>  -10.6213    1.0000 </r>
       <r>  -10.4848    1.0000 </r>
       <r>  -10.4319    1.0000 </r>
       <r>  -10.3783    1.0000 </r>
       <r>  -10.3775    1.0000 </r>
       <r>  -10.3017    1.0000 </r>
       <r>  -10.2428    1.0000 </r>
       <r>  -10.2426    1.0000 </r>
       <r>  -10.1888    1.0000 </r>
       <r>  -10.1876    1.0000 </r>
       <r>  -10.1691    1.0000 </r>
       <r>  -10.1587    1.0000 </r>
       <r>  -10.1575    1.0000 </r>
       <r>  -10.1211    1.0000 </r>
       <r>  -10.0661    1.0000 </r>
       <r>  -10.0068    1.0000 </r>
       <r>  -10.0056    1.0000 </r>
       <r>   -9.7559    1.0000 </r>
       <r>   -9.7538    1.0000 </r>
       <r>   -9.6872    1.0000 </r>
       <r>   -9.5451    1.0000 </r>
       <r>   -9.5145    1.0000 </r>
       <r>   -9.5133    1.0000 </r>
       <r>   -9.1932    1.0000 </r>
       <r>   -9.1780    1.0000 </r>
       <r>   -9.1738    1.0000 </r>
       <r>   -9.0058    1.0000 </r>
       <r>   -8.9299    1.0000 </r>
       <r>   -8.9278    1.0000 </r>
       <r>   -8.7967    1.0000 </r>
       <r>   -8.6379    1.0000 </r>
       <r>   -8.6358    1.0000 </r>
       <r>   -8.6340    1.0000 </r>
       <r>   -8.4313    1.0000 </r>
       <r>   -8.4306    1.0000 </r>
       <r>   -8.2426    1.0000 </r>
       <r>   -8.2267    1.0000 </r>
       <r>   -8.2257    1.0000 </r>
       <r>   -8.1829    1.0000 </r>
       <r>   -8.1799    1.0000 </r>
       <r>   -8.1421    1.0000 </r>
       <r>   -8.1229    1.0000 </r>
       <r>   -8.0714    1.0000 </r>
       <r>   -8.0702    1.0000 </r>
       <r>   -7.8744    1.0000 </r>
       <r>   -7.8703    1.0000 </r>
       <r>   -7.8686    1.0000 </r>
       <r>   -7.7008    1.0000 </r>
       <r>   -7.6759    1.0000 </r>
       <r>   -7.6726    1.0000 </r>
       <r>   -7.4526    1.0000 </r>
       <r>   -7.4502    1.0000 </r>
       <r>   -7.4378    1.0000 </r>
       <r>   -7.3047    1.0000 </r>
       <r>   -7.3044    1.0000 </r>
       <r>   -7.2953    1.0000 </r>
       <r>   -7.1585    1.0000 </r>
       <r>   -7.1558    1.0000 </r>
       <r>   -6.9976    1.0000 </r>
       <r>   -6.8980    1.0000 </r>
       <r>   -6.8965    1.0000 </r>
       <r>   -6.8536    1.0000 </r>
       <r>   -6.7404    1.0000 </r>
       <r>   -6.7361    1.0000 </r>
       <r>   -6.6766    1.0000 </r>
       <r>   -6.6313    1.0000 </r>
       <r>   -6.6297    1.0000 </r>
       <r>   -6.5991    1.0000 </r>
       <r>   -6.5425    1.0000 </r>
       <r>   -6.4641    1.0000 </r>
       <r>   -6.4634    1.0000 </r>
       <r>   -6.3391    1.0000 </r>
       <r>   -6.3062    1.0000 </r>
       <r>   -6.3034    1.0000 </r>
       <r>   -6.1920    1.0000 </r>
       <r>   -6.1075    1.0000 </r>
       <r>   -6.1066    1.0000 </r>
       <r>   -6.0610    1.0000 </r>
       <r>   -6.0555    1.0000 </r>
       <r>   -6.0509    1.0000 </r>
       <r>   -5.7265    1.0000 </r>
       <r>   -5.7129    1.0000 </r>
       <r>   -5.7097    1.0000 </r>
       <r>   -5.5990    1.0000 </r>
       <r>   -5.5972    1.0000 </r>
       <r>   -5.5848    1.0000 </r>
       <r>   -3.7277    0.0000 </r>
       <r>   -3.7131    0.0000 </r>
       <r>   -3.7112    0.0000 </r>
       <r>   -3.4837    0.0000 </r>
       <r>   -3.4720    0.0000 </r>
       <r>   -3.1504    0.0000 </r>
       <r>   -3.1404    0.0000 </r>
       <r>   -2.8961    0.0000 </r>
       <r>   -2.7959    0.0000 </r>
       <r>   -2.5237    0.0000 </r>
       <r>   -2.5203    0.0000 </r>
       <r>   -2.4323    0.0000 </r>
       <r>   -2.4050    0.0000 </r>
       <r>   -2.3409    0.0000 </r>
       <r>   -2.3338    0.0000 </r>
       <r>   -2.3060    0.0000 </r>
       <r>   -2.2754    0.0000 </r>
       <r>   -2.2751    0.0000 </r>
       <r>   -2.1096    0.0000 </r>
       <r>   -2.0225    0.0000 </r>
       <r>   -2.0182    0.0000 </r>
       <r>   -1.9365    0.0000 </r>
       <r>   -1.8840    0.0000 </r>
       <r>   -1.3101    0.0000 </r>
       <r>   -1.2925    0.0000 </r>
       <r>   -0.9976    0.0000 </r>
       <r>   -0.9912    0.0000 </r>
       <r>   -0.6747    0.0000 </r>
       <r>   -0.6517    0.0000 </r>
       <r>   -0.6472    0.0000 </r>
       <r>   -0.4203    0.0000 </r>
       <r>   -0.1835    0.0000 </r>
       <r>   -0.1819    0.0000 </r>
       <r>   -0.1095    0.0000 </r>
       <r>    0.1375    0.0000 </r>
       <r>    0.1595    0.0000 </r>
       <r>    0.1601    0.0000 </r>
       <r>    0.3496    0.0000 </r>
       <r>    0.3774    0.0000 </r>
       <r>    0.3785    0.0000 </r>
       <r>    0.4060    0.0000 </r>
       <r>    0.4291    0.0000 </r>
       <r>    0.4293    0.0000 </r>
       <r>    0.5411    0.0000 </r>
       <r>    0.5918    0.0000 </r>
       <r>    0.5954    0.0000 </r>
       <r>    0.5967    0.0000 </r>
       <r>    0.6160    0.0000 </r>
       <r>    0.6663    0.0000 </r>
       <r>    0.6684    0.0000 </r>
       <r>    0.7161    0.0000 </r>
       <r>    0.7184    0.0000 </r>
       <r>    0.7238    0.0000 </r>
       <r>    0.8326    0.0000 </r>
       <r>    0.8342    0.0000 </r>
       <r>    0.8384    0.0000 </r>
       <r>    0.8462    0.0000 </r>
      </set>
      <set comment="kpoint 2">
       <r>  -26.1703    1.0000 </r>
       <r>  -26.1401    1.0000 </r>
       <r>  -26.1377    1.0000 </r>
       <r>  -25.8593    1.0000 </r>
       <r>  -25.8335    1.0000 </r>
       <r>  -25.8291    1.0000 </r>
       <r>  -25.1609    1.0000 </r>
       <r>  -25.1596    1.0000 </r>
       <r>  -25.0987    1.0000 </r>
       <r>  -24.9665    1.0000 </r>
       <r>  -24.9579    1.0000 </r>
       <r>  -24.9571    1.0000 </r>
       <r>  -24.7785    1.0000 </r>
       <r>  -24.7767    1.0000 </r>
       <r>  -24.6941    1.0000 </r>
       <r>  -23.1341    1.0000 </r>
       <r>  -23.1319    1.0000 </r>
       <r>  -23.1261    1.0000 </r>
       <r>  -23.0168    1.0000 </r>
       <r>  -22.9610    1.0000 </r>
       <r>  -22.9576    1.0000 </r>
       <r>  -22.7723    1.0000 </r>
       <r>  -22.7331    1.0000 </r>
       <r>  -22.7291    1.0000 </r>
       <r>  -22.6170    1.0000 </r>
       <r>  -22.6152    1.0000 </r>
       <r>  -22.6138    1.0000 </r>
       <r>  -22.5552    1.0000 </r>
       <r>  -22.5549    1.0000 </r>
       <r>  -22.5288    1.0000 </r>
       <r>  -22.3538    1.0000 </r>
       <r>  -22.3289    1.0000 </r>
       <r>  -22.3288    1.0000 </r>
       <r>  -22.2004    1.0000 </r>
       <r>  -22.1995    1.0000 </r>
       <r>  -22.1712    1.0000 </r>
       <r>  -20.5271    1.0000 </r>
       <r>  -20.3149    1.0000 </r>
       <r>  -20.3143    1.0000 </r>
       <r>  -20.2691    1.0000 </r>
       <r>  -20.2683    1.0000 </r>
       <r>  -20.2643    1.0000 </r>
       <r>  -20.1602    1.0000 </r>
       <r>  -19.9610    1.0000 </r>
       <r>  -19.9606    1.0000 </r>
       <r>  -18.4944    1.0000 </r>
       <r>  -18.4920    1.0000 </r>
       <r>  -18.2783    1.0000 </r>
       <r>  -18.1991    1.0000 </r>
       <r>  -18.1983    1.0000 </r>
       <r>  -17.9730    1.0000 </r>
       <r>  -17.9722    1.0000 </r>
       <r>  -17.6208    1.0000 </r>
       <r>  -17.1646    1.0000 </r>
       <r>  -17.0749    1.0000 </r>
       <r>  -16.8245    1.0000 </r>
       <r>  -16.8224    1.0000 </r>
       <r>  -16.8130    1.0000 </r>
       <r>  -16.6486    1.0000 </r>
       <r>  -16.5848    1.0000 </r>
       <r>  -16.5811    1.0000 </r>
       <r>  -16.5311    1.0000 </r>
       <r>  -16.5297    1.0000 </r>
       <r>  -16.3258    1.0000 </r>
       <r>  -16.2572    1.0000 </r>
       <r>  -16.2542    1.0000 </r>
       <r>  -16.1095    1.0000 </r>
       <r>  -15.9761    1.0000 </r>
       <r>  -15.7049    1.0000 </r>
       <r>  -15.7027    1.0000 </r>
       <r>  -15.4181    1.0000 </r>
       <r>  -15.4171    1.0000 </r>
       <r>  -15.2380    1.0000 </r>
       <r>  -15.0566    1.0000 </r>
       <r>  -15.0557    1.0000 </r>
       <r>  -14.4202    1.0000 </r>
       <r>  -14.4187    1.0000 </r>
       <r>  -14.1890    1.0000 </r>
       <r>  -13.9425    1.0000 </r>
       <r>  -13.9191    1.0000 </r>
       <r>  -13.9177    1.0000 </r>
       <r>  -13.8688    1.0000 </r>
       <r>  -13.8675    1.0000 </r>
       <r>  -13.7161    1.0000 </r>
       <r>  -13.7056    1.0000 </r>
       <r>  -13.7040    1.0000 </r>
       <r>  -13.6038    1.0000 </r>
       <r>  -13.2488    1.0000 </r>
       <r>  -13.0902    1.0000 </r>
       <r>  -13.0859    1.0000 </r>
       <r>  -12.9483    1.0000 </r>
       <r>  -12.7643    1.0000 </r>
       <r>  -12.7616    1.0000 </r>
       <r>  -12.7092    1.0000 </r>
       <r>  -12.7049    1.0000 </r>
       <r>  -12.6876    1.0000 </r>
       <r>  -12.5723    1.0000 </r>
       <r>  -12.4821    1.0000 </r>
       <r>  -12.4773    1.0000 </r>
       <r>  -12.3085    1.0000 </r>
       <r>  -12.3062    1.0000 </r>
       <r>  -12.0834    1.0000 </r>
       <r>  -12.0747    1.0000 </r>
       <r>  -12.0680    1.0000 </r>
       <r>  -11.8922    1.0000 </r>
       <r>  -11.8904    1.0000 </r>
       <r>  -11.8840    1.0000 </r>
       <r>  -11.6180    1.0000 </r>
       <r>  -11.5941    1.0000 </r>
       <r>  -11.5906    1.0000 </r>
       <r>  -11.3522    1.0000 </r>
       <r>  -11.1528    1.0000 </r>
       <r>  -11.0377    1.0000 </r>
       <r>  -11.0295    1.0000 </r>
       <r>  -10.9814    1.0000 </r>
       <r>  -10.9792    1.0000 </r>
       <r>  -10.9170    1.0000 </r>
       <r>  -10.8374    1.0000 </r>
       <r>  -10.7692    1.0000 </r>
       <r>  -10.7652    1.0000 </r>
       <r>  -10.6253    1.0000 </r>
       <r>  -10.6212    1.0000 </r>
       <r>  -10.4849    1.0000 </r>
       <r>  -10.4319    1.0000 </r>
       <r>  -10.3783    1.0000 </r>
       <r>  -10.3776    1.0000 </r>
       <r>  -10.3016    1.0000 </r>
       <r>  -10.2428    1.0000 </r>
       <r>  -10.2425    1.0000 </r>
       <r>  -10.1888    1.0000 </r>
       <r>  -10.1876    1.0000 </r>
       <r>  -10.1691    1.0000 </r>
       <r>  -10.1587    1.0000 </r>
       <r>  -10.1575    1.0000 </r>
       <r>  -10.1212    1.0000 </r>
       <r>  -10.0661    1.0000 </r>
       <r>  -10.0068    1.0000 </r>
       <r>  -10.0056    1.0000 </r>
       <r>   -9.7559    1.0000 </r>
       <r>   -9.7538    1.0000 </r>
       <r>   -9.6871    1.0000 </r>
       <r>   -9.5451    1.0000 </r>
       <r>   -9.5145    1.0000 </r>
       <r>   -9.5133    1.0000 </r>
       <r>   -9.1934    1.0000 </r>
       <r>   -9.1778    1.0000 </r>
       <r>   -9.1737    1.0000 </r>
       <r>   -9.0058    1.0000 </r>
       <r>   -8.9300    1.0000 </r>
       <r>   -8.9278    1.0000 </r>
       <r>   -8.7967    1.0000 </r>
       <r>   -8.6385    1.0000 </r>
       <r>   -8.6353    1.0000 </r>
       <r>   -8.6338    1.0000 </r>
       <r>   -8.4312    1.0000 </r>
       <r>   -8.4306    1.0000 </r>
       <r>   -8.2426    1.0000 </r>
       <r>   -8.2267    1.0000 </r>
       <r>   -8.2257    1.0000 </r>
       <r>   -8.1830    1.0000 </r>
       <r>   -8.1800    1.0000 </r>
       <r>   -8.1421    1.0000 </r>
       <r>   -8.1229    1.0000 </r>
       <r>   -8.0713    1.0000 </r>
       <r>   -8.0701    1.0000 </r>
       <r>   -7.8744    1.0000 </r>
       <r>   -7.8703    1.0000 </r>
       <r>   -7.8686    1.0000 </r>
       <r>   -7.7008    1.0000 </r>
       <r>   -7.6759    1.0000 </r>
       <r>   -7.6726    1.0000 </r>
       <r>   -7.4530    1.0000 </r>
       <r>   -7.4502    1.0000 </r>
       <r>   -7.4374    1.0000 </r>
       <r>   -7.3047    1.0000 </r>
       <r>   -7.3044    1.0000 </r>
       <r>   -7.2953    1.0000 </r>
       <r>   -7.1585    1.0000 </r>
       <r>   -7.1558    1.0000 </r>
       <r>   -6.9976    1.0000 </r>
       <r>   -6.8981    1.0000 </r>
       <r>   -6.8965    1.0000 </r>
       <r>   -6.8535    1.0000 </r>
       <r>   -6.7404    1.0000 </r>
       <r>   -6.7361    1.0000 </r>
       <r>   -6.6766    1.0000 </r>
       <r>   -6.6313    1.0000 </r>
       <r>   -6.6297    1.0000 </r>
       <r>   -6.5991    1.0000 </r>
       <r>   -6.5425    1.0000 </r>
       <r>   -6.4641    1.0000 </r>
       <r>   -6.4634    1.0000 </r>
       <r>   -6.3391    1.0000 </r>
       <r>   -6.3062    1.0000 </r>
       <r>   -6.3034    1.0000 </r>
       <r>   -6.1920    1.0000 </r>
       <r>   -6.1075    1.0000 </r>
       <r>   -6.1066    1.0000 </r>
       <r>   -6.0610    1.0000 </r>
       <r>   -6.0555    1.0000 </r>
       <r>   -6.0509    1.0000 </r>
       <r>   -5.7265    1.0000 </r>
       <r>   -5.7129    1.0000 </r>
       <r>   -5.7097    1.0000 </r>
       <r>   -5.5990    1.0000 </r>
       <r>   -5.5972    1.0000 </r>
       <r>   -5.5848    1.0000 </r>
       <r>   -3.7277    0.0000 </r>
       <r>   -3.7131    0.0000 </r>
       <r>   -3.7112    0.0000 </r>
       <r>   -3.4837    0.0000 </r>
       <r>   -3.4720    0.0000 </r>
       <r>   -3.1504    0.0000 </r>
       <r>   -3.1404    0.0000 </r>
       <r>   -2.8958    0.0000 </r>
       <r>   -2.7958    0.0000 </r>
       <r>   -2.5241    0.0000 </r>
       <r>   -2.5216    0.0000 </r>
       <r>   -2.4320    0.0000 </r>
       <r>   -2.4043    0.0000 </r>
       <r>   -2.3403    0.0000 </r>
       <r>   -2.3338    0.0000 </r>
       <r>   -2.3074    0.0000 </r>
       <r>   -2.2751    0.0000 </r>
[...]
       <r>   -22.8621     0.0000    42.0000 </r>
       <r>   -22.7629    18.2173    43.8063 </r>
       <r>   -22.6638    40.3409    48.0000 </r>
       <r>   -22.5646    63.9370    54.3396 </r>
       <r>   -22.4655    20.1706    60.0000 </r>
       <r>   -22.3663     0.6305    60.0625 </r>
       <r>   -22.2672    40.3411    66.0000 </r>
       <r>   -22.1680    53.9513    71.3495 </r>
       <r>   -22.0689     0.0000    72.0000 </r>
       <r>   -21.9697     0.0000    72.0000 </r>
       <r>   -21.8706     0.0000    72.0000 </r>
       <r>   -21.7714     0.0000    72.0000 </r>
       <r>   -21.6723     0.0000    72.0000 </r>
       <r>   -21.5731     0.0000    72.0000 </r>
       <r>   -21.4739     0.0000    72.0000 </r>
       <r>   -21.3748     0.0000    72.0000 </r>
       <r>   -21.2756     0.0000    72.0000 </r>
       <r>   -21.1765     0.0000    72.0000 </r>
       <r>   -21.0773     0.0000    72.0000 </r>
       <r>   -20.9782     0.0000    72.0000 </r>
       <r>   -20.8790     0.0000    72.0000 </r>
       <r>   -20.7799     0.0000    72.0000 </r>
       <r>   -20.6807     0.0000    72.0000 </r>
       <r>   -20.5816     0.0000    72.0000 </r>
       <r>   -20.4824    20.1706    74.0000 </r>
       <r>   -20.3832     0.0000    74.0000 </r>
       <r>   -20.2841    40.9449    78.0599 </r>
       <r>   -20.1849     7.3795    84.0005 </r>
       <r>   -20.0858    20.1659    86.0000 </r>
       <r>   -19.9866     0.0053    86.0005 </r>
       <r>   -19.8875    40.3358    90.0000 </r>
       <r>   -19.7883     0.0000    90.0000 </r>
       <r>   -19.6892     0.0000    90.0000 </r>
       <r>   -19.5900     0.0000    90.0000 </r>
       <r>   -19.4909     0.0000    90.0000 </r>
       <r>   -19.3917     0.0000    90.0000 </r>
       <r>   -19.2925     0.0000    90.0000 </r>
       <r>   -19.1934     0.0000    90.0000 </r>
       <r>   -19.0942     0.0000    90.0000 </r>
       <r>   -18.9951     0.0000    90.0000 </r>
       <r>   -18.8959     0.0000    90.0000 </r>
       <r>   -18.7968     0.0000    90.0000 </r>
       <r>   -18.6976     0.0000    90.0000 </r>
       <r>   -18.5985     0.0000    90.0000 </r>
       <r>   -18.4993     5.5273    90.5481 </r>
       <r>   -18.4002     0.0000    94.0000 </r>
       <r>   -18.3010     0.9549    94.0947 </r>
       <r>   -18.2018    19.5436    97.5051 </r>
       <r>   -18.1027    13.7811   100.0000 </r>
       <r>   -18.0035    13.1610   101.3050 </r>
       <r>   -17.9044    24.5387   104.0000 </r>
       <r>   -17.8052     0.0000   104.0000 </r>
       <r>   -17.7061     0.0000   104.0000 </r>
       <r>   -17.6069     3.3589   104.3330 </r>
       <r>   -17.5078    11.8708   105.6772 </r>
       <r>   -17.4086     0.0000   106.0000 </r>
       <r>   -17.3095     0.0000   106.0000 </r>
       <r>   -17.2103    12.8486   107.2740 </r>
       <r>   -17.1111    21.1868   109.5009 </r>
       <r>   -17.0120     3.0253   110.0000 </r>
       <r>   -16.9128     0.0000   110.0000 </r>
       <r>   -16.8137    25.6840   112.5467 </r>
       <r>   -16.7145    11.6173   115.3191 </r>
       <r>   -16.6154    20.1677   118.0000 </r>
       <r>   -16.5162    59.0899   123.8590 </r>
       <r>   -16.4171    13.7812   126.0000 </r>
       <r>   -16.3179    14.3026   127.4182 </r>
       <r>   -16.2188    40.3363   131.9995 </r>
       <r>   -16.1196    17.5811   133.7439 </r>
       <r>   -16.0205    10.4675   135.0379 </r>
       <r>   -15.9213     6.3866   136.0000 </r>
       <r>   -15.8221     0.0000   136.0000 </r>
       <r>   -15.7230    11.5132   137.1416 </r>
       <r>   -15.6238     8.8686   138.8797 </r>
       <r>   -15.5247     7.7306   140.0000 </r>
       <r>   -15.4255    15.9540   141.5819 </r>
       <r>   -15.3264    15.7997   144.0000 </r>
       <r>   -15.2272    18.7233   145.8565 </r>
       <r>   -15.1281     0.0000   146.0000 </r>
       <r>   -15.0289    40.3408   150.0000 </r>
       <r>   -14.9298     0.0000   150.0000 </r>
       <r>   -14.8306     0.0000   150.0000 </r>
       <r>   -14.7314     0.0000   150.0000 </r>
       <r>   -14.6323     0.0000   150.0000 </r>
       <r>   -14.5331     0.0000   150.0000 </r>
       <r>   -14.4340     0.3778   150.0375 </r>
       <r>   -14.3348    14.7880   154.0000 </r>
       <r>   -14.2357     2.6815   154.2659 </r>
       <r>   -14.1365     7.7304   156.0000 </r>
       <r>   -14.0374     0.0000   156.0000 </r>
       <r>   -13.9382    15.3562   157.5226 </r>
       <r>   -13.8391    78.9123   165.9294 </r>
       <r>   -13.7399     0.0379   166.0038 </r>
       <r>   -13.6407    63.7739   172.6924 </r>
       <r>   -13.5416     6.3854   174.0000 </r>
       <r>   -13.4424     0.0000   174.0000 </r>
       <r>   -13.3433     0.0000   174.0000 </r>
       <r>   -13.2441    14.4114   175.4290 </r>
       <r>   -13.1450     0.0000   176.0000 </r>
       <r>   -13.0458    39.7871   179.9451 </r>
       <r>   -12.9467     9.4822   180.9402 </r>
       <r>   -12.8475     0.0000   182.0000 </r>
       <r>   -12.7484    40.2300   185.9890 </r>
       <r>   -12.6492    56.7734   191.6303 </r>
       <r>   -12.5500    20.1140   193.9944 </r>
       <r>   -12.4509    28.6066   196.8365 </r>
       <r>   -12.3517     5.2377   198.5193 </r>
       <r>   -12.2526    20.8356   202.0000 </r>
       <r>   -12.1534     4.5756   202.4537 </r>
       <r>   -12.0543    27.2066   205.9645 </r>
       <r>   -11.9551    15.7985   208.0000 </r>
       <r>   -11.8560    60.1484   213.9640 </r>
       <r>   -11.7568     0.0000   214.0000 </r>
       <r>   -11.6577     0.1532   214.0152 </r>
       <r>   -11.5585    35.6281   218.6997 </r>
       <r>   -11.4594     9.4029   220.0000 </r>
       <r>   -11.3602    15.2428   221.5114 </r>
       <r>   -11.2610     0.0000   222.0000 </r>
       <r>   -11.1619     1.2034   222.1193 </r>
       <r>   -11.0627     0.0009   224.0001 </r>
       <r>   -10.9636    79.8375   231.9163 </r>
       <r>   -10.8644    33.4554   235.3172 </r>
       <r>   -10.7653    17.8266   237.4677 </r>
       <r>   -10.6661    12.4339   240.0000 </r>
       <r>   -10.5670    40.3409   244.0000 </r>
       <r>   -10.4678    20.1273   245.9957 </r>
       <r>   -10.3687    58.3843   251.7891 </r>
       <r>   -10.2695    20.1093   253.9939 </r>
       <r>   -10.1703    92.4454   263.1666 </r>
       <r>   -10.0712    25.1461   270.4933 </r>
       <r>    -9.9720    40.3411   276.0000 </r>
       <r>    -9.8729     0.0000   276.0000 </r>
       <r>    -9.7737     0.3848   276.0382 </r>
       <r>    -9.6746    28.4524   281.5249 </r>
       <r>    -9.5754     0.0093   282.0009 </r>
       <r>    -9.4763    60.5024   288.0000 </r>
       <r>    -9.3771     0.0000   288.0000 </r>
       <r>    -9.2780     0.0000   288.0000 </r>
       <r>    -9.1788    27.2627   290.7032 </r>
       <r>    -9.0796    12.4353   294.0000 </r>
       <r>    -8.9805    20.1432   295.9973 </r>
       <r>    -8.8813    40.3411   300.0000 </r>
       <r>    -8.7822    20.0226   301.9853 </r>
       <r>    -8.6830     0.0001   302.0000 </r>
       <r>    -8.5839    60.5116   308.0000 </r>
       <r>    -8.4847     0.0000   308.0000 </r>
       <r>    -8.3856    40.3410   312.0000 </r>
       <r>    -8.2864     0.0000   312.0000 </r>
       <r>    -8.1873    81.2266   320.0540 </r>
       <r>    -8.0881    40.4233   326.0082 </r>
       <r>    -7.9889    30.5664   330.0000 </r>
       <r>    -7.8898     0.4400   330.0436 </r>
       <r>    -7.7906    40.2508   336.0000 </r>
       <r>    -7.6915    19.5022   337.9337 </r>
       <r>    -7.5923    13.7582   342.0000 </r>
       <r>    -7.4932     0.1929   342.0191 </r>
       <r>    -7.3940    49.0398   347.9962 </r>
       <r>    -7.2949    41.6122   352.1260 </r>
       <r>    -7.1957     0.0000   354.0000 </r>
       <r>    -7.0966    40.3411   358.0000 </r>
       <r>    -6.9974    14.1812   359.4061 </r>
       <r>    -6.8983    23.8456   362.3644 </r>
       <r>    -6.7991    20.1706   366.0000 </r>
       <r>    -6.6999    40.3457   370.0005 </r>
       <r>    -6.6008    67.6529   376.7085 </r>
       <r>    -6.5016    20.1706   380.0000 </r>
       <r>    -6.4025    40.3411   384.0000 </r>
       <r>    -6.3033    45.3122   388.4929 </r>
       <r>    -6.2042     1.0244   390.1016 </r>
       <r>    -6.1050    23.2613   394.3065 </r>
       <r>    -6.0059    60.5117   402.0000 </r>
       <r>    -5.9067     0.0000   402.0000 </r>
       <r>    -5.8076     0.0000   402.0000 </r>
       <r>    -5.7084    46.7460   406.6351 </r>
       <r>    -5.6092     2.6120   408.2590 </r>
       <r>    -5.5101    20.1665   414.0000 </r>
       <r>    -5.4109     0.0000   414.0000 </r>
       <r>    -5.3118     0.0000   414.0000 </r>
       <r>    -5.2126     0.0000   414.0000 </r>
       <r>    -5.1135     0.0000   414.0000 </r>
       <r>    -5.0143     0.0000   414.0000 </r>
       <r>    -4.9152     0.0000   414.0000 </r>
       <r>    -4.8160     0.0000   414.0000 </r>
       <r>    -4.7169     0.0000   414.0000 </r>
       <r>    -4.6177     0.0000   414.0000 </r>
       <r>    -4.5185     0.0000   414.0000 </r>
       <r>    -4.4194     0.0000   414.0000 </r>
       <r>    -4.3202     0.0000   414.0000 </r>
       <r>    -4.2211     0.0000   414.0000 </r>
       <r>    -4.1219     0.0000   414.0000 </r>
       <r>    -4.0228     0.0000   414.0000 </r>
       <r>    -3.9236     0.0000   414.0000 </r>
       <r>    -3.8245     0.0000   414.0000 </r>
       <r>    -3.7253    11.4696   415.1373 </r>
       <r>    -3.6262     0.0000   420.0000 </r>
       <r>    -3.5270     0.0000   420.0000 </r>
       <r>    -3.4278    40.3411   424.0000 </r>
       <r>    -3.3287     0.0000   424.0000 </r>
       <r>    -3.2295     0.0000   424.0000 </r>
       <r>    -3.1304    38.4123   427.8087 </r>
       <r>    -3.0312     0.0000   428.0000 </r>
       <r>    -2.9321     0.0000   428.0000 </r>
       <r>    -2.8329    16.2238   429.6087 </r>
       <r>    -2.7338    20.1706   432.0000 </r>
       <r>    -2.6346    12.1969   433.2094 </r>
       <r>    -2.5355     9.7337   434.2985 </r>
       <r>    -2.4363     8.4695   436.8398 </r>
       <r>    -2.3372    46.9573   442.6560 </r>
       <r>    -2.2380    32.1958   447.2925 </r>
       <r>    -2.1388    28.7859   450.4544 </r>
       <r>    -2.0397     6.8790   452.0157 </r>
       <r>    -1.9405    41.8275   458.1487 </r>
       <r>    -1.8414     6.3870   460.0000 </r>
       <r>    -1.7422     0.0000   460.0000 </r>
       <r>    -1.6431     0.0000   460.0000 </r>
       <r>    -1.5439     0.0000   460.0000 </r>
       <r>    -1.4448     0.0000   460.0000 </r>
       <r>    -1.3456     0.0001   460.0000 </r>
       <r>    -1.2465    40.3400   463.9999 </r>
       <r>    -1.1473     0.0000   464.0000 </r>
       <r>    -1.0481     0.0000   464.0000 </r>
       <r>    -0.9490    40.3411   468.0000 </r>
       <r>    -0.8498     0.0000   468.0000 </r>
       <r>    -0.7507     0.0000   468.0000 </r>
       <r>    -0.6515    34.2562   471.3967 </r>
       <r>    -0.5524     0.0000   474.0000 </r>
       <r>    -0.4532     0.0001   474.0000 </r>
       <r>    -0.3541    20.1705   476.0000 </r>
       <r>    -0.2549     0.0000   476.0000 </r>
       <r>    -0.1558    40.3400   479.9999 </r>
       <r>    -0.0566     8.3876   480.8317 </r>
       <r>     0.0426     5.7112   482.0000 </r>
       <r>     0.1417    20.1945   484.0024 </r>
       <r>     0.2409    17.8136   488.0000 </r>
       <r>     0.3400    24.3546   490.4149 </r>
       <r>     0.4392    58.0826   498.2261 </r>
       <r>     0.5383    19.3749   500.8887 </r>
       <r>     0.6375    47.6866   506.7283 </r>
       <r>     0.7366    96.5750   517.3764 </r>
       <r>     0.8358    65.6434   525.2427 </r>
       <r>     0.9349    12.0991   528.0000 </r>
       <r>     1.0341     0.0000   528.0000 </r>
       <r>     1.1333     0.0000   528.0000 </r>
       <r>     1.2324     0.0000   528.0000 </r>
       <r>     1.3316     0.0000   528.0000 </r>
       <r>     1.4307     0.0000   528.0000 </r>
       <r>     1.5299     0.0000   528.0000 </r>
       <r>     1.6290     0.0000   528.0000 </r>
       <r>     1.7282     0.0000   528.0000 </r>
       <r>     1.8273     0.0000   528.0000 </r>
       <r>     1.9265     0.0000   528.0000 </r>
       <r>     2.0256     0.0000   528.0000 </r>
       <r>     2.1248     0.0000   528.0000 </r>
       <r>     2.2239     0.0000   528.0000 </r>
      </set>
     </set>
    </array>
   </total>
  </dos>
 </calculation>
 <structure name="finalpos" >
  <crystal>
   <varray name="basis" >
    <v>      28.92622254      -0.00152790       0.00000000 </v>
    <v>     -14.46432101      25.03743980       0.00000000 </v>
    <v>       0.00000000       0.00000000      20.00000000 </v>
   </varray>
   <i name="volume">  14484.32910579 </i>
   <varray name="rec_basis" >
    <v>       0.03457176       0.01997237       0.00000000 </v>
    <v>       0.00000211       0.03994140       0.00000000 </v>
    <v>       0.00000000       0.00000000       0.05000000 </v>
   </varray>
  </crystal>
  <varray name="positions" >
   <v>       0.22102205       0.72119612       0.43847123 </v>
   <v>       0.25335602       0.68855645       0.63796567 </v>
   <v>       0.29727875       0.49381875       0.44005277 </v>
   <v>       0.97017305       0.40775832       0.46916828 </v>
   <v>       0.46230068       0.04979211       0.46804197 </v>
   <v>       0.46183332       0.40810654       0.46563321 </v>
   <v>       0.45997631       0.76699230       0.63718662 </v>
   <v>       0.33158661       0.56063145       0.63863806 </v>
   <v>       0.77577029       0.32244666       0.63773746 </v>
   <v>       0.57048160       0.24420330       0.63851900 </v>
   <v>       0.69844290       0.45047313       0.63663315 </v>
   <v>       0.97100065       0.55732229       0.46527350 </v>
   <v>       0.61092704       0.04882843       0.46649495 </v>
   <v>       0.61132434       0.55698196       0.46831812 </v>
   <v>       0.52278901       0.79724297       0.43656030 </v>
   <v>       0.80755900       0.28658602       0.43950399 </v>
   <v>       0.50263852       0.21079033       0.44040179 </v>
   <v>       0.73171907       0.51458873       0.43657479 </v>
   <v>       0.04392439       0.47743116       0.46874517 </v>
   <v>       0.04442056       0.56064014       0.46689793 </v>
   <v>       0.15006744       0.53029220       0.49679717 </v>
   <v>       0.15129444       0.61357938       0.49378852 </v>
   <v>       0.22037060       0.60680301       0.54951353 </v>
   <v>       0.26087807       0.54673474       0.59472126 </v>
   <v>       0.29252206       0.77763239       0.48280579 </v>
   <v>       0.24147702       0.50968160       0.48452410 </v>
   <v>       0.40449350       0.86964342       0.49547013 </v>
   <v>       0.48656346       0.86847590       0.49297226 </v>
   <v>       0.41055973       0.79929197       0.54833211 </v>
   <v>       0.48873744       0.61444341       0.49615562 </v>
   <v>       0.40564021       0.53210041       0.49497654 </v>
   <v>       0.41245069       0.60861019       0.54903021 </v>
   <v>       0.88044227       0.47962305       0.49823843 </v>
   <v>       0.87913308       0.39604619       0.49659306 </v>
   <v>       0.80765717       0.40227034       0.54605406 </v>
   <v>       0.62366568       0.13943929       0.49968464 </v>
   <v>       0.54139856       0.14058426       0.49711070 </v>
   <v>       0.61851880       0.21173863       0.54807421 </v>
   <v>       0.53969636       0.39550552       0.49867712 </v>
   <v>       0.62325166       0.47772936       0.49509782 </v>
   <v>       0.61735697       0.40064676       0.54615564 </v>
   <v>       0.45808207       0.97600216       0.46769374 </v>
   <v>       0.45845271       0.47819777       0.46719444 </v>
   <v>       0.31003766       0.75914983       0.59354607 </v>
   <v>       0.47327334       0.70980745       0.59318913 </v>
   <v>       0.71870702       0.25151994       0.59446603 </v>
   <v>       0.55653551       0.30087400       0.59427928 </v>
   <v>       0.76893366       0.46387017       0.59259640 </v>
   <v>       0.54071882       0.97539153       0.46684575 </v>
   <v>       0.54163872       0.56096022       0.46880558 </v>
   <v>       0.50801662       0.72614831       0.48179799 </v>
   <v>       0.73606898       0.23122363       0.48460005 </v>
   <v>       0.51876457       0.28265733       0.48450231 </v>
   <v>       0.78774808       0.49941645       0.48163336 </v>
   <v>       0.12686888       0.56011335       0.48683622 </v>
   <v>       0.06828774       0.53102595       0.47141468 </v>
   <v>       0.19714619       0.55608780       0.52808717 </v>
   <v>       0.19841512       0.63490836       0.52544206 </v>
   <v>       0.26501714       0.71241321       0.59221478 </v>
   <v>       0.23311398       0.53307369       0.53719668 </v>
   <v>       0.24665998       0.73043816       0.48239304 </v>
   <v>       0.23394604       0.69302519       0.53370180 </v>
   <v>       0.28851032       0.51072035       0.48385363 </v>
   <v>       0.38315076       0.82254873       0.52675230 </v>
   <v>       0.45756723       0.89290845       0.48587174 </v>
   <v>       0.46064230       0.82124070       0.52437494 </v>
   <v>       0.46303229       0.63596406       0.52714265 </v>
   <v>       0.45900863       0.56125750       0.48719797 </v>
   <v>       0.38435078       0.55819299       0.52599559 </v>
   <v>       0.83223211       0.45351567       0.52656062 </v>
   <v>       0.90396364       0.44973810       0.48946282 </v>
   <v>       0.83081727       0.37444727       0.52509887 </v>
   <v>       0.64543602       0.18743830       0.52857544 </v>
   <v>       0.57032560       0.11584502       0.49023910 </v>
   <v>       0.56775196       0.18866558       0.52630071 </v>
   <v>       0.56597540       0.37373078       0.52731463 </v>
   <v>       0.56951000       0.44882526       0.48892819 </v>
   <v>       0.64502834       0.45134237       0.52405792 </v>
   <v>       0.99072350       0.45137068       0.47013509 </v>
   <v>       0.96142099       0.47807665       0.47437860 </v>
   <v>       0.48530069       0.02921400       0.46946755 </v>
   <v>       0.54127666       0.05844599       0.47462795 </v>
   <v>       0.48513729       0.45165589       0.46827256 </v>
   <v>       0.54106794       0.47785091       0.47404674 </v>
   <v>       0.32417064       0.78651214       0.53574510 </v>
   <v>       0.47172334       0.75490001       0.59143463 </v>
   <v>       0.48590072       0.69506831       0.53536745 </v>
   <v>       0.30742674       0.54811866       0.59314570 </v>
   <v>       0.76397073       0.29797727       0.59250481 </v>
   <v>       0.70447966       0.22332146       0.53729377 </v>
   <v>       0.55782328       0.25565665       0.59300061 </v>
   <v>       0.54260257       0.31470368       0.53680029 </v>
   <v>       0.72234168       0.46237779       0.59092385 </v>
   <v>       0.79640632       0.47680509       0.53490177 </v>
   <v>       0.99119468       0.53399560       0.46812774 </v>
   <v>       0.56737716       0.02863951       0.46865414 </v>
   <v>       0.48720957       0.95155859       0.47074180 </v>
   <v>       0.56773854       0.53386908       0.46972656 </v>
   <v>       0.48806829       0.53171781       0.47171222 </v>
   <v>       0.50689938       0.77211343       0.48099450 </v>
   <v>       0.48300839       0.78551879       0.53257051 </v>
   <v>       0.32629098       0.53571620       0.53470138 </v>
   <v>       0.78214418       0.27823008       0.48348050 </v>
   <v>       0.79516565       0.31635220       0.53392666 </v>
   <v>       0.51978822       0.23662524       0.48403485 </v>
   <v>       0.54510844       0.22412933       0.53473020 </v>
   <v>       0.74068013       0.49832004       0.48085586 </v>
   <v>       0.70318481       0.47399011       0.53212898 </v>
  </varray>
 </structure>
</modeling>
