<?xml version="1.0" encoding="ISO-8859-1"?>
<modeling>
 <generator>
  <i name="program" type="string">vasp </i>
  <i name="version" type="string">5.4.4.18Apr17-6-g9f103f2a35  </i>
  <i name="subversion" type="string">(build Jun 07 2020 16:50:00) complex            parallel </i>
  <i name="platform" type="string">LinuxIFC </i>
  <i name="date" type="string">2023 02 15 </i>
  <i name="time" type="string">20:26:03 </i>
 </generator>
 <incar>
  <i type="string" name="SYSTEM">Simulation for cell shape cell volume r</i>
  <i type="int" name="ISTART">     1</i>
  <i type="string" name="PREC">high</i>
  <i type="string" name="ALGO">48</i>
  <i type="int" name="ICHARG">    11</i>
  <i type="int" name="NELM">   200</i>
  <i type="int" name="IBRION">    -1</i>
  <i name="EDIFF">      0.00001000</i>
  <i name="EDIFFG">     -0.01000000</i>
  <i type="int" name="NSW">     0</i>
  <i type="int" name="ISIF">     2</i>
  <i name="ENCUT">    500.00000000</i>
  <i name="POTIM">      0.30000000</i>
  <i type="string" name="LREAL">A</i>
  <i type="int" name="ISMEAR">     0</i>
  <i name="SIGMA">      0.01000000</i>
  <i type="int" name="NWRITE">     0</i>
  <i type="logical" name="LWAVE"> F  </i>
  <i type="logical" name="LCHARG"> F  </i>
  <v type="int" name="KPOINT_BSE">    -1     0     0     0</v>
  <i type="int" name="NELM">   200</i>
  <i type="string" name="GGA">PE</i>
 </incar>
 <structure name="primitive_cell" >
  <crystal>
   <varray name="basis" >
    <v>      29.49021797      -0.01980232       0.00000000 </v>
    <v>     -14.76226884      25.61905073       0.00000000 </v>
    <v>       0.00000000       0.00000000      20.00000000 </v>
   </varray>
   <i name="volume">  15104.38125983 </i>
   <varray name="rec_basis" >
    <v>       0.03392267       0.01954700       0.00000000 </v>
    <v>       0.00002622       0.03904856       0.00000000 </v>
    <v>       0.00000000       0.00000000       0.05000000 </v>
   </varray>
  </crystal>
  <varray name="positions" >
   <v>       0.03977049      -0.37702578       0.41910204 </v>
   <v>       0.05553177      -0.40674077       0.40119587 </v>
   <v>       0.08771699      -0.39863199       0.35637884 </v>
   <v>       0.03425173      -0.45783175       0.43658439 </v>
   <v>       0.12578554      -0.36984586       0.48506335 </v>
   <v>      -0.01704973      -0.48433763       0.44209140 </v>
   <v>       0.06725371      -0.47641707       0.46006497 </v>
   <v>       0.14618348      -0.39148257       0.49369537 </v>
   <v>      -0.09748298      -0.48816634       0.48287754 </v>
   <v>       0.12272275      -0.44514103       0.47958771 </v>
   <v>      -0.04004716       0.46609488       0.46400366 </v>
   <v>       0.04350607       0.47199271       0.47268150 </v>
   <v>      -0.11946658       0.47029944       0.49480492 </v>
   <v>      -0.00821899       0.44317480       0.47186504 </v>
   <v>       0.19592410      -0.36529174      -0.47725874 </v>
   <v>      -0.09568561       0.43980505       0.48362650 </v>
   <v>       0.23596861      -0.27543319       0.48340235 </v>
   <v>       0.22696807      -0.30841696      -0.46570635 </v>
   <v>       0.15068305      -0.47160472       0.49093500 </v>
   <v>      -0.18285727      -0.47698777       0.44463120 </v>
   <v>      -0.02466474       0.40136860       0.48004472 </v>
   <v>       0.13202432       0.48703921       0.47854987 </v>
   <v>       0.22164465      -0.39294537      -0.46215307 </v>
   <v>      -0.16929538       0.44770911      -0.47665789 </v>
   <v>       0.27923826      -0.22872787       0.48304899 </v>
   <v>       0.20008254      -0.44566883      -0.47944235 </v>
   <v>      -0.12378719       0.38577170       0.49628247 </v>
   <v>       0.19313219      -0.33965245      -0.33370490 </v>
   <v>       0.28412985      -0.20229256       0.44201619 </v>
   <v>      -0.21019384      -0.49749672       0.48537436 </v>
   <v>       0.25850408      -0.28693730      -0.40823807 </v>
   <v>      -0.20058128       0.47359296      -0.46571743 </v>
   <v>      -0.10723991       0.36095027       0.48492419 </v>
   <v>       0.26031271      -0.37288006      -0.43901312 </v>
   <v>       0.24125186      -0.31209899      -0.34114559 </v>
   <v>      -0.19509938       0.39460673      -0.45975119 </v>
   <v>      -0.17355430       0.36309371      -0.47495459 </v>
   <v>       0.31864137      -0.21656267      -0.46819909 </v>
   <v>       0.30453156      -0.24439680      -0.41149510 </v>
   <v>      -0.25564918      -0.49796343       0.48509813 </v>
   <v>      -0.22912371       0.46065489      -0.40950329 </v>
   <v>       0.23454606      -0.46787612      -0.46765621 </v>
   <v>      -0.23385576       0.37739398      -0.43704346 </v>
   <v>       0.21952537       0.48173774       0.44417285 </v>
   <v>       0.27515510      -0.30377423      -0.29934034 </v>
   <v>       0.24633892      -0.49599032       0.48461304 </v>
   <v>       0.26293767      -0.45292364      -0.41132865 </v>
   <v>      -0.27013703       0.46681250      -0.40686099 </v>
   <v>      -0.28953365       0.47926376      -0.46440597 </v>
   <v>      -0.20842725       0.30666221      -0.46335525 </v>
   <v>       0.37549625      -0.18239125      -0.47953251 </v>
   <v>       0.37665494      -0.11370945       0.48041972 </v>
   <v>      -0.17417693       0.33559561      -0.33017547 </v>
   <v>       0.38766954      -0.24333682      -0.44081819 </v>
   <v>      -0.21944203       0.27252071       0.48659706 </v>
   <v>       0.39924606      -0.13269875       0.49201157 </v>
   <v>       0.40646620      -0.20446805      -0.46314518 </v>
   <v>       0.29310728      -0.49262984       0.48510857 </v>
   <v>      -0.22222139       0.31362765      -0.33942676 </v>
   <v>      -0.29601497       0.45926811      -0.34028051 </v>
   <v>      -0.24050254       0.28767057      -0.40589329 </v>
   <v>       0.30555292      -0.45632643      -0.40775314 </v>
   <v>      -0.34613200       0.45765563      -0.47556617 </v>
   <v>      -0.29321418       0.42906471      -0.30042564 </v>
   <v>      -0.34369771      -0.47390284       0.48447858 </v>
   <v>       0.32655811      -0.46768652      -0.46466324 </v>
   <v>      -0.31845232       0.48486982      -0.33136440 </v>
   <v>      -0.25530264       0.31132767      -0.29994374 </v>
   <v>       0.39169791      -0.36980010      -0.44011701 </v>
   <v>       0.32402704      -0.41983448      -0.30044283 </v>
   <v>      -0.36070102       0.38313920      -0.43763997 </v>
   <v>      -0.26453638       0.22728869       0.48702349 </v>
   <v>      -0.36871981       0.48481745       0.49591841 </v>
   <v>       0.45375729      -0.10495917       0.48085368 </v>
   <v>       0.33124519      -0.44700344      -0.34082839 </v>
   <v>       0.45996808      -0.17889931      -0.47809112 </v>
   <v>      -0.37787275       0.40471947      -0.46018910 </v>
   <v>      -0.28781633       0.24694774      -0.40851939 </v>
   <v>      -0.27124758       0.19970234       0.44672303 </v>
   <v>       0.41154802      -0.38877397      -0.46271735 </v>
   <v>      -0.30329679       0.21818009      -0.46451255 </v>
   <v>       0.45072437      -0.02538339       0.47692800 </v>
   <v>       0.38350059      -0.44225709      -0.47664948 </v>
   <v>       0.48375794      -0.12889341       0.49395829 </v>
   <v>       0.47820544      -0.04934067       0.46252737 </v>
   <v>       0.48582215      -0.21007047      -0.46695835 </v>
   <v>      -0.38355177      -0.43143298       0.47978846 </v>
   <v>      -0.36648769       0.25184956      -0.43767431 </v>
   <v>       0.43947936      -0.25908926      -0.30217964 </v>
   <v>       0.47555408      -0.24173292      -0.40965376 </v>
   <v>       0.46685817      -0.22494203      -0.34271409 </v>
   <v>      -0.42291926       0.45910844       0.48370334 </v>
   <v>       0.35804709      -0.46819806      -0.33203335 </v>
   <v>       0.47250651      -0.28748918      -0.41287276 </v>
   <v>      -0.43119229       0.37759521      -0.47675420 </v>
   <v>      -0.48978278      -0.21878710       0.48230756 </v>
   <v>       0.44883480       0.04288123       0.48620443 </v>
   <v>       0.46436981      -0.35801017      -0.48045044 </v>
   <v>       0.48678170      -0.30128598      -0.46945739 </v>
   <v>       0.47385679       0.02622810       0.47614276 </v>
   <v>       0.48865262      -0.17697471      -0.33405802 </v>
   <v>      -0.47413478      -0.10865053       0.48552808 </v>
   <v>       0.40942314      -0.46626245       0.49494593 </v>
   <v>      -0.36050465       0.18706595      -0.47583591 </v>
   <v>      -0.38792323       0.21303821      -0.45996978 </v>
   <v>      -0.48603076      -0.26186736       0.48195480 </v>
   <v>      -0.45371622       0.40492712       0.49497860 </v>
   <v>       0.38749136       0.49165453       0.48729083 </v>
   <v>      -0.42554653      -0.45658440       0.47196035 </v>
   <v>      -0.46539261      -0.06957292       0.35663409 </v>
   <v>      -0.44896073       0.48867965       0.46443979 </v>
   <v>      -0.47039212      -0.01667691       0.43823462 </v>
   <v>      -0.45734721       0.32048285      -0.46582671 </v>
   <v>      -0.44475085       0.30476973      -0.40945085 </v>
   <v>      -0.46423636      -0.26655777       0.44099202 </v>
   <v>      -0.41401948       0.27167604      -0.30007868 </v>
   <v>       0.49001426      -0.38193058       0.49046489 </v>
   <v>      -0.44099692      -0.03816990       0.40196517 </v>
   <v>      -0.45095083       0.25767575      -0.40697069 </v>
   <v>       0.46315921      -0.43642953       0.48019523 </v>
   <v>      -0.38770009       0.13708993       0.49634587 </v>
   <v>      -0.44099467       0.19150344      -0.47562255 </v>
   <v>      -0.48613917       0.28209880       0.48504715 </v>
   <v>       0.41460978       0.48078150       0.35878712 </v>
   <v>      -0.47154777       0.05771868       0.46624711 </v>
   <v>      -0.46295790       0.22613808      -0.46471358 </v>
   <v>      -0.49540435       0.38551265       0.48333859 </v>
   <v>      -0.36810507       0.11493074       0.48538543 </v>
   <v>      -0.45406691      -0.43339486       0.47289238 </v>
   <v>      -0.44406998       0.23896927      -0.34037652 </v>
   <v>      -0.44532610       0.03451868       0.44347899 </v>
   <v>      -0.48563032       0.23724401       0.48469537 </v>
   <v>       0.49338768       0.28893500       0.44425969 </v>
   <v>      -0.49882663       0.46224866       0.44323148 </v>
   <v>       0.49068326       0.12520150       0.48428354 </v>
   <v>      -0.46858091      -0.35951017       0.47763705 </v>
   <v>       0.42314024       0.45719929       0.40377363 </v>
   <v>      -0.39555371      -0.02324459       0.41961227 </v>
   <v>       0.39340939       0.41206179       0.42273652 </v>
   <v>      -0.46797517       0.14169123       0.49618674 </v>
   <v>      -0.44199376       0.11341673       0.48478998 </v>
   <v>       0.49407524      -0.46104423       0.46088643 </v>
   <v>      -0.46995426       0.19095212      -0.33191458 </v>
   <v>       0.47485936       0.48720742       0.43801511 </v>
  </varray>
 </structure>
 <varray name="primitive_index" >
  <v type="int" >        1 </v>
  <v type="int" >      119 </v>
  <v type="int" >        2 </v>
  <v type="int" >       48 </v>
  <v type="int" >       20 </v>
  <v type="int" >      135 </v>
  <v type="int" >       47 </v>
  <v type="int" >       53 </v>
  <v type="int" >       29 </v>
  <v type="int" >       46 </v>
  <v type="int" >      106 </v>
  <v type="int" >      118 </v>
  <v type="int" >       73 </v>
  <v type="int" >       88 </v>
  <v type="int" >       49 </v>
  <v type="int" >       74 </v>
  <v type="int" >      122 </v>
  <v type="int" >       54 </v>
  <v type="int" >       52 </v>
  <v type="int" >       45 </v>
  <v type="int" >       38 </v>
  <v type="int" >       19 </v>
  <v type="int" >       50 </v>
  <v type="int" >       72 </v>
  <v type="int" >      113 </v>
  <v type="int" >       51 </v>
  <v type="int" >       75 </v>
  <v type="int" >        3 </v>
  <v type="int" >       41 </v>
  <v type="int" >      117 </v>
  <v type="int" >       56 </v>
  <v type="int" >      104 </v>
  <v type="int" >       30 </v>
  <v type="int" >       22 </v>
  <v type="int" >      120 </v>
  <v type="int" >       71 </v>
  <v type="int" >       70 </v>
  <v type="int" >       91 </v>
  <v type="int" >      125 </v>
  <v type="int" >      144 </v>
  <v type="int" >      133 </v>
  <v type="int" >       55 </v>
  <v type="int" >       31 </v>
  <v type="int" >       21 </v>
  <v type="int" >        4 </v>
  <v type="int" >       57 </v>
  <v type="int" >      121 </v>
  <v type="int" >      105 </v>
  <v type="int" >      103 </v>
  <v type="int" >       97 </v>
  <v type="int" >       60 </v>
  <v type="int" >       23 </v>
  <v type="int" >       10 </v>
  <v type="int" >       25 </v>
  <v type="int" >      142 </v>
  <v type="int" >       61 </v>
  <v type="int" >       59 </v>
  <v type="int" >      141 </v>
  <v type="int" >      130 </v>
  <v type="int" >      134 </v>
  <v type="int" >       99 </v>
  <v type="int" >       96 </v>
  <v type="int" >       82 </v>
  <v type="int" >       13 </v>
  <v type="int" >       36 </v>
  <v type="int" >       95 </v>
  <v type="int" >       14 </v>
  <v type="int" >        9 </v>
  <v type="int" >       28 </v>
  <v type="int" >        7 </v>
  <v type="int" >       37 </v>
  <v type="int" >      115 </v>
  <v type="int" >       87 </v>
  <v type="int" >       62 </v>
  <v type="int" >      128 </v>
  <v type="int" >       58 </v>
  <v type="int" >       83 </v>
  <v type="int" >      129 </v>
  <v type="int" >       43 </v>
  <v type="int" >       65 </v>
  <v type="int" >       98 </v>
  <v type="int" >      123 </v>
  <v type="int" >       64 </v>
  <v type="int" >       63 </v>
  <v type="int" >      107 </v>
  <v type="int" >       92 </v>
  <v type="int" >       40 </v>
  <v type="int" >       34 </v>
  <v type="int" >        5 </v>
  <v type="int" >       94 </v>
  <v type="int" >      127 </v>
  <v type="int" >       86 </v>
  <v type="int" >        8 </v>
  <v type="int" >      126 </v>
  <v type="int" >       84 </v>
  <v type="int" >      140 </v>
  <v type="int" >       39 </v>
  <v type="int" >       66 </v>
  <v type="int" >       93 </v>
  <v type="int" >       89 </v>
  <v type="int" >        6 </v>
  <v type="int" >       24 </v>
  <v type="int" >       69 </v>
  <v type="int" >       78 </v>
  <v type="int" >       77 </v>
  <v type="int" >      114 </v>
  <v type="int" >       85 </v>
  <v type="int" >       27 </v>
  <v type="int" >       90 </v>
  <v type="int" >       16 </v>
  <v type="int" >      111 </v>
  <v type="int" >      109 </v>
  <v type="int" >      101 </v>
  <v type="int" >      131 </v>
  <v type="int" >       42 </v>
  <v type="int" >       11 </v>
  <v type="int" >       67 </v>
  <v type="int" >      137 </v>
  <v type="int" >      102 </v>
  <v type="int" >       68 </v>
  <v type="int" >       79 </v>
  <v type="int" >       76 </v>
  <v type="int" >      116 </v>
  <v type="int" >       18 </v>
  <v type="int" >      108 </v>
  <v type="int" >      100 </v>
  <v type="int" >       35 </v>
  <v type="int" >       32 </v>
  <v type="int" >      124 </v>
  <v type="int" >      132 </v>
  <v type="int" >      136 </v>
  <v type="int" >      143 </v>
  <v type="int" >       44 </v>
  <v type="int" >      138 </v>
  <v type="int" >       33 </v>
  <v type="int" >       26 </v>
  <v type="int" >      139 </v>
  <v type="int" >       15 </v>
  <v type="int" >       17 </v>
  <v type="int" >       81 </v>
  <v type="int" >       80 </v>
  <v type="int" >      110 </v>
  <v type="int" >       12 </v>
  <v type="int" >      112 </v>
 </varray>
 <kpoints>
  <generation param="listgenerated">
   <i name="divisions" type="int">      20 </i>
   <v>       0.00000000       0.00000000       0.00000000 </v>
   <v>       0.50000000       0.00000000       0.00000000 </v>
   <v>       0.33333333       0.33333333       0.00000000 </v>
   <v>       0.00000000       0.00000000       0.00000000 </v>
  </generation>
  <varray name="kpointlist" >
   <v>       0.00000000       0.00000000       0.00000000 </v>
   <v>       0.02631579       0.00000000       0.00000000 </v>
   <v>       0.05263158       0.00000000       0.00000000 </v>
   <v>       0.07894737       0.00000000       0.00000000 </v>
   <v>       0.10526316       0.00000000       0.00000000 </v>
   <v>       0.13157895       0.00000000       0.00000000 </v>
   <v>       0.15789474       0.00000000       0.00000000 </v>
   <v>       0.18421053       0.00000000       0.00000000 </v>
   <v>       0.21052632       0.00000000       0.00000000 </v>
   <v>       0.23684211       0.00000000       0.00000000 </v>
   <v>       0.26315789       0.00000000       0.00000000 </v>
   <v>       0.28947368       0.00000000       0.00000000 </v>
   <v>       0.31578947       0.00000000       0.00000000 </v>
   <v>       0.34210526       0.00000000       0.00000000 </v>
   <v>       0.36842105       0.00000000       0.00000000 </v>
   <v>       0.39473684       0.00000000       0.00000000 </v>
   <v>       0.42105263       0.00000000       0.00000000 </v>
   <v>       0.44736842       0.00000000       0.00000000 </v>
   <v>       0.47368421       0.00000000       0.00000000 </v>
   <v>       0.50000000       0.00000000       0.00000000 </v>
   <v>       0.50000000       0.00000000       0.00000000 </v>
   <v>       0.49122807       0.01754386       0.00000000 </v>
   <v>       0.48245614       0.03508772       0.00000000 </v>
   <v>       0.47368421       0.05263158       0.00000000 </v>
   <v>       0.46491228       0.07017544       0.00000000 </v>
   <v>       0.45614035       0.08771930       0.00000000 </v>
   <v>       0.44736842       0.10526316       0.00000000 </v>
   <v>       0.43859649       0.12280702       0.00000000 </v>
   <v>       0.42982456       0.14035088       0.00000000 </v>
   <v>       0.42105263       0.15789474       0.00000000 </v>
   <v>       0.41228070       0.17543860       0.00000000 </v>
   <v>       0.40350877       0.19298246       0.00000000 </v>
   <v>       0.39473684       0.21052632       0.00000000 </v>
   <v>       0.38596491       0.22807018       0.00000000 </v>
   <v>       0.37719298       0.24561404       0.00000000 </v>
   <v>       0.36842105       0.26315789       0.00000000 </v>
   <v>       0.35964912       0.28070175       0.00000000 </v>
   <v>       0.35087719       0.29824561       0.00000000 </v>
   <v>       0.34210526       0.31578947       0.00000000 </v>
   <v>       0.33333333       0.33333333       0.00000000 </v>
   <v>       0.33333333       0.33333333       0.00000000 </v>
   <v>       0.31578947       0.31578947       0.00000000 </v>
   <v>       0.29824561       0.29824561       0.00000000 </v>
   <v>       0.28070175       0.28070175       0.00000000 </v>
   <v>       0.26315789       0.26315789       0.00000000 </v>
   <v>       0.24561404       0.24561404       0.00000000 </v>
   <v>       0.22807018       0.22807018       0.00000000 </v>
   <v>       0.21052632       0.21052632       0.00000000 </v>
   <v>       0.19298246       0.19298246       0.00000000 </v>
   <v>       0.17543860       0.17543860       0.00000000 </v>
   <v>       0.15789474       0.15789474       0.00000000 </v>
   <v>       0.14035088       0.14035088       0.00000000 </v>
   <v>       0.12280702       0.12280702       0.00000000 </v>
   <v>       0.10526316       0.10526316       0.00000000 </v>
   <v>       0.08771930       0.08771930       0.00000000 </v>
   <v>       0.07017544       0.07017544       0.00000000 </v>
   <v>       0.05263158       0.05263158       0.00000000 </v>
   <v>       0.03508772       0.03508772       0.00000000 </v>
   <v>       0.01754386       0.01754386       0.00000000 </v>
   <v>       0.00000000       0.00000000       0.00000000 </v>
  </varray>
  <varray name="weights" >
   <v>       0.01666667 </v>
   <v>       0.01666667 </v>
   <v>       0.01666667 </v>
   <v>       0.01666667 </v>
   <v>       0.01666667 </v>
   <v>       0.01666667 </v>
   <v>       0.01666667 </v>
   <v>       0.01666667 </v>
   <v>       0.01666667 </v>
   <v>       0.01666667 </v>
   <v>       0.01666667 </v>
   <v>       0.01666667 </v>
   <v>       0.01666667 </v>
   <v>       0.01666667 </v>
   <v>       0.01666667 </v>
   <v>       0.01666667 </v>
   <v>       0.01666667 </v>
   <v>       0.01666667 </v>
   <v>       0.01666667 </v>
   <v>       0.01666667 </v>
   <v>       0.01666667 </v>
   <v>       0.01666667 </v>
   <v>       0.01666667 </v>
   <v>       0.01666667 </v>
   <v>       0.01666667 </v>
   <v>       0.01666667 </v>
   <v>       0.01666667 </v>
   <v>       0.01666667 </v>
   <v>       0.01666667 </v>
   <v>       0.01666667 </v>
   <v>       0.01666667 </v>
   <v>       0.01666667 </v>
   <v>       0.01666667 </v>
   <v>       0.01666667 </v>
   <v>       0.01666667 </v>
   <v>       0.01666667 </v>
   <v>       0.01666667 </v>
   <v>       0.01666667 </v>
   <v>       0.01666667 </v>
   <v>       0.01666667 </v>
   <v>       0.01666667 </v>
   <v>       0.01666667 </v>
   <v>       0.01666667 </v>
   <v>       0.01666667 </v>
   <v>       0.01666667 </v>
   <v>       0.01666667 </v>
   <v>       0.01666667 </v>
   <v>       0.01666667 </v>
   <v>       0.01666667 </v>
   <v>       0.01666667 </v>
   <v>       0.01666667 </v>
   <v>       0.01666667 </v>
   <v>       0.01666667 </v>
   <v>       0.01666667 </v>
   <v>       0.01666667 </v>
   <v>       0.01666667 </v>
   <v>       0.01666667 </v>
   <v>       0.01666667 </v>
   <v>       0.01666667 </v>
   <v>       0.01666667 </v>
  </varray>
 </kpoints>
 <parameters>
  <separator name="general" >
   <i type="string" name="SYSTEM">Simulation for cell shape cell volume r</i>
   <i type="logical" name="LCOMPAT"> F  </i>
  </separator>
  <separator name="electronic" >
   <i type="string" name="PREC">high</i>
   <i name="ENMAX">    500.00000000</i>
   <i name="ENAUG">    644.87300000</i>
   <i name="EDIFF">      0.00001000</i>
   <i type="int" name="IALGO">    38</i>
   <i type="int" name="IWAVPR">    10</i>
   <i type="int" name="NBANDS">   352</i>
   <i name="NELECT">    558.00000000</i>
   <i type="int" name="TURBO">     0</i>
   <i type="int" name="IRESTART">     0</i>
   <i type="int" name="NREBOOT">     0</i>
   <i type="int" name="NMIN">     0</i>
   <i name="EREF">      0.00000000</i>
   <separator name="electronic smearing" >
    <i type="int" name="ISMEAR">     0</i>
    <i name="SIGMA">      0.01000000</i>
    <i name="KSPACING">      0.50000000</i>
    <i type="logical" name="KGAMMA"> T  </i>
   </separator>
   <separator name="electronic projectors" >
    <i type="logical" name="LREAL"> T  </i>
    <v name="ROPT">     -0.00040000     -0.00040000     -0.00040000     -0.00040000</v>
    <i type="int" name="LMAXPAW">  -100</i>
    <i type="int" name="LMAXMIX">     2</i>
    <i type="logical" name="NLSPLINE"> F  </i>
   </separator>
   <separator name="electronic startup" >
    <i type="int" name="ISTART">     1</i>
    <i type="int" name="ICHARG">    11</i>
    <i type="int" name="INIWAV">     1</i>
   </separator>
   <separator name="electronic spin" >
    <i type="int" name="ISPIN">     1</i>
    <i type="logical" name="LNONCOLLINEAR"> F  </i>
    <v name="MAGMOM">      1.00000000      1.00000000      1.00000000      1.00000000      1.00000000      1.00000000      1.00000000      1.00000000      1.00000000      1.00000000      1.00000000      1.00000000      1.00000000      1.00000000      1.00000000      1.00000000      1.00000000      1.00000000      1.00000000      1.00000000
      1.00000000      1.00000000      1.00000000      1.00000000      1.00000000      1.00000000      1.00000000      1.00000000      1.00000000      1.00000000      1.00000000      1.00000000      1.00000000      1.00000000      1.00000000      1.00000000      1.00000000      1.00000000      1.00000000      1.00000000
      1.00000000      1.00000000      1.00000000      1.00000000      1.00000000      1.00000000      1.00000000      1.00000000      1.00000000      1.00000000      1.00000000      1.00000000      1.00000000      1.00000000      1.00000000      1.00000000      1.00000000      1.00000000      1.00000000      1.00000000
      1.00000000      1.00000000      1.00000000      1.00000000      1.00000000      1.00000000      1.00000000      1.00000000      1.00000000      1.00000000      1.00000000      1.00000000      1.00000000      1.00000000      1.00000000      1.00000000      1.00000000      1.00000000      1.00000000      1.00000000
      1.00000000      1.00000000      1.00000000      1.00000000      1.00000000      1.00000000      1.00000000      1.00000000      1.00000000      1.00000000      1.00000000      1.00000000      1.00000000      1.00000000      1.00000000      1.00000000      1.00000000      1.00000000      1.00000000      1.00000000
      1.00000000      1.00000000      1.00000000      1.00000000      1.00000000      1.00000000      1.00000000      1.00000000      1.00000000      1.00000000      1.00000000      1.00000000      1.00000000      1.00000000      1.00000000      1.00000000      1.00000000      1.00000000      1.00000000      1.00000000
      1.00000000      1.00000000      1.00000000      1.00000000      1.00000000      1.00000000      1.00000000      1.00000000      1.00000000      1.00000000      1.00000000      1.00000000      1.00000000      1.00000000      1.00000000      1.00000000      1.00000000      1.00000000      1.00000000      1.00000000
      1.00000000      1.00000000      1.00000000      1.00000000</v>
    <i name="NUPDOWN">     -1.00000000</i>
    <i type="logical" name="LSORBIT"> F  </i>
    <v name="SAXIS">      0.00000000      0.00000000      1.00000000</v>
    <i type="logical" name="LSPIRAL"> F  </i>
    <v name="QSPIRAL">      0.00000000      0.00000000      0.00000000</v>
    <i type="logical" name="LZEROZ"> F  </i>
   </separator>
   <separator name="electronic exchange-correlation" >
    <i type="logical" name="LASPH"> F  </i>
    <i type="logical" name="LMETAGGA"> F  </i>
   </separator>
   <separator name="electronic convergence" >
    <i type="int" name="NELM">   200</i>
    <i type="int" name="NELMDL">     0</i>
    <i type="int" name="NELMIN">     2</i>
    <i name="ENINI">    500.00000000</i>
    <separator name="electronic convergence detail" >
     <i type="logical" name="LDIAG"> T  </i>
     <i type="logical" name="LSUBROT"> F  </i>
     <i name="WEIMIN">      0.00000000</i>
     <i name="EBREAK">      0.00000001</i>
     <i name="DEPER">      0.30000000</i>
     <i type="int" name="NRMM">     4</i>
     <i name="TIME">      0.40000000</i>
    </separator>
   </separator>
   <separator name="electronic mixer" >
    <i name="AMIX">      0.40000000</i>
    <i name="BMIX">      1.00000000</i>
    <i name="AMIN">      0.10000000</i>
    <i name="AMIX_MAG">      1.60000000</i>
    <i name="BMIX_MAG">      1.00000000</i>
    <separator name="electronic mixer details" >
     <i type="int" name="IMIX">     4</i>
     <i type="logical" name="MIXFIRST"> F  </i>
     <i type="int" name="MAXMIX">   -45</i>
     <i name="WC">    100.00000000</i>
     <i type="int" name="INIMIX">     1</i>
     <i type="int" name="MIXPRE">     1</i>
     <i type="int" name="MREMOVE">     5</i>
    </separator>
   </separator>
   <separator name="electronic dipolcorrection" >
    <i type="logical" name="LDIPOL"> F  </i>
    <i type="logical" name="LMONO"> F  </i>
    <i type="int" name="IDIPOL">     0</i>
    <i name="EPSILON">      1.00000000</i>
    <v name="DIPOL">   -100.00000000   -100.00000000   -100.00000000</v>
    <i name="EFIELD">      0.00000000</i>
   </separator>
  </separator>
  <separator name="grids" >
   <i type="int" name="NGX">   216</i>
   <i type="int" name="NGY">   216</i>
   <i type="int" name="NGZ">   150</i>
   <i type="int" name="NGXF">   336</i>
   <i type="int" name="NGYF">   336</i>
   <i type="int" name="NGZF">   224</i>
   <i type="logical" name="ADDGRID"> F  </i>
  </separator>
  <separator name="ionic" >
   <i type="int" name="NSW">     0</i>
   <i type="int" name="IBRION">    -1</i>
   <i type="int" name="MDALGO">     0</i>
   <i type="int" name="ISIF">     2</i>
   <i name="PSTRESS">      0.00000000</i>
   <i name="EDIFFG">     -0.01000000</i>
   <i type="int" name="NFREE">     0</i>
   <i name="POTIM">      0.30000000</i>
   <i name="SMASS">     -3.00000000</i>
   <i name="SCALEE">      1.00000000</i>
  </separator>
  <separator name="ionic md" >
   <i name="TEBEG">      0.00010000</i>
   <i name="TEEND">      0.00010000</i>
   <i type="int" name="NBLOCK">     1</i>
   <i type="int" name="KBLOCK">     1</i>
   <i type="int" name="NPACO">   256</i>
   <i name="APACO">     16.00000000</i>
  </separator>
  <separator name="symmetry" >
   <i type="int" name="ISYM">     2</i>
   <i name="SYMPREC">      0.00001000</i>
  </separator>
  <separator name="dos" >
   <i type="int" name="LORBIT">     0</i>
   <v name="RWIGS">     -1.00000000     -1.00000000     -1.00000000     -1.00000000</v>
   <i type="int" name="NEDOS">   301</i>
   <i name="EMIN">     10.00000000</i>
   <i name="EMAX">    -10.00000000</i>
   <i name="EFERMI">      0.00000000</i>
  </separator>
  <separator name="writing" >
   <i type="int" name="NWRITE">     0</i>
   <i type="logical" name="LWAVE"> F  </i>
   <i type="logical" name="LDOWNSAMPLE"> F  </i>
   <i type="logical" name="LCHARG"> F  </i>
   <i type="logical" name="LPARD"> F  </i>
   <i type="logical" name="LVTOT"> F  </i>
   <i type="logical" name="LVHAR"> F  </i>
   <i type="logical" name="LELF"> F  </i>
   <i type="logical" name="LOPTICS"> F  </i>
   <v name="STM">      0.00000000      0.00000000      0.00000000      0.00000000      0.00000000      0.00000000      0.00000000</v>
  </separator>
  <separator name="performance" >
   <i type="int" name="NPAR">    16</i>
   <i type="int" name="NSIM">     4</i>
   <i type="int" name="NBLK">    -1</i>
   <i type="logical" name="LPLANE"> T  </i>
   <i type="logical" name="LSCALAPACK"> T  </i>
   <i type="logical" name="LSCAAWARE"> F  </i>
   <i type="logical" name="LSCALU"> F  </i>
   <i type="logical" name="LASYNC"> F  </i>
   <i type="logical" name="LORBITALREAL"> F  </i>
  </separator>
  <separator name="miscellaneous" >
   <i type="int" name="IDIOT">     3</i>
   <i type="int" name="ISPECIAL">     0</i>
   <i type="logical" name="LMUSIC"> F  </i>
   <v name="POMASS">     16.00000000      1.00000000     12.01100000     14.00100000</v>
   <v name="DARWINR">      0.00000000      0.00000000      0.00000000      0.00000000</v>
   <v name="DARWINV">      1.00000000      1.00000000      1.00000000      1.00000000</v>
   <i type="logical" name="LCORR"> T  </i>
  </separator>
  <i type="logical" name="GGA_COMPAT"> T  </i>
  <i type="logical" name="LBERRY"> F  </i>
  <i type="int" name="ICORELEVEL">     0</i>
  <i type="logical" name="LDAU"> F  </i>
  <i type="int" name="I_CONSTRAINED_M">     0</i>
  <separator name="electronic exchange-correlation" >
   <i type="string" name="GGA">PE</i>
   <i type="int" name="VOSKOWN">     0</i>
   <i type="logical" name="LHFCALC"> F  </i>
   <i type="string" name="PRECFOCK"></i>
   <i type="logical" name="LSYMGRAD"> F  </i>
   <i type="logical" name="LHFONE"> F  </i>
   <i type="logical" name="LRHFCALC"> F  </i>
   <i type="logical" name="LTHOMAS"> F  </i>
   <i type="logical" name="LMODELHF"> F  </i>
   <i name="ENCUT4O">     -1.00000000</i>
   <i type="int" name="EXXOEP">     0</i>
   <i type="int" name="FOURORBIT">     0</i>
   <i name="AEXX">      0.00000000</i>
   <i name="HFALPHA">      0.00000000</i>
   <i name="MCALPHA">      0.00000000</i>
   <i name="ALDAX">      1.00000000</i>
   <i name="AGGAX">      1.00000000</i>
   <i name="ALDAC">      1.00000000</i>
   <i name="AGGAC">      1.00000000</i>
   <i type="int" name="NKREDX">     1</i>
   <i type="int" name="NKREDY">     1</i>
   <i type="int" name="NKREDZ">     1</i>
   <i type="logical" name="SHIFTRED"> F  </i>
   <i type="logical" name="ODDONLY"> F  </i>
   <i type="logical" name="EVENONLY"> F  </i>
   <i type="int" name="LMAXFOCK">     0</i>
   <i type="int" name="NMAXFOCKAE">     0</i>
   <i type="logical" name="LFOCKAEDFT"> F  </i>
   <i name="HFSCREEN">      0.00000000</i>
   <i name="HFSCREENC">      0.00000000</i>
   <i type="int" name="NBANDSGWLOW">     0</i>
  </separator>
  <separator name="vdW DFT" >
   <i type="logical" name="LUSE_VDW"> F  </i>
   <i name="Zab_VDW">     -0.84910000</i>
   <i name="PARAM1">      0.12340000</i>
   <i name="PARAM2">      1.00000000</i>
   <i name="PARAM3">      0.00000000</i>
  </separator>
  <separator name="model GW" >
   <i type="int" name="MODEL_GW">     0</i>
   <i name="MODEL_EPS0">     62.93492192</i>
   <i name="MODEL_ALPHA">      1.00000000</i>
  </separator>
  <separator name="linear response parameters" >
   <i type="logical" name="LEPSILON"> F  </i>
   <i type="logical" name="LRPA"> F  </i>
   <i type="logical" name="LNABLA"> F  </i>
   <i type="logical" name="LVEL"> F  </i>
   <i type="int" name="KINTER">     0</i>
   <i name="CSHIFT">      0.10000000</i>
   <i name="OMEGAMAX">     -1.00000000</i>
   <i name="DEG_THRESHOLD">      0.00200000</i>
   <i name="RTIME">     -0.10000000</i>
   <i name="WPLASMAI">      0.00000000</i>
   <v name="DFIELD">      0.00000000      0.00000000      0.00000000</v>
   <v name="WPLASMA">      0.00000000      0.00000000      0.00000000      0.00000000      0.00000000      0.00000000      0.00000000      0.00000000      0.00000000</v>
  </separator>
  <separator name="orbital magnetization" >
   <i type="logical" name="NUCIND"> F  </i>
   <v name="MAGPOS">      0.00000000      0.00000000      0.00000000</v>
   <i type="logical" name="LNICSALL"> T  </i>
   <i type="logical" name="ORBITALMAG"> F  </i>
   <i type="logical" name="LMAGBLOCH"> F  </i>
   <i type="logical" name="LCHIMAG"> F  </i>
   <i type="logical" name="LGAUGE"> T  </i>
   <i type="int" name="MAGATOM">     0</i>
   <v name="MAGDIPOL">      0.00000000      0.00000000      0.00000000</v>
   <v name="AVECCONST">      0.00000000      0.00000000      0.00000000</v>
  </separator>
  <separator name="response functions" >
   <i type="logical" name="LADDER"> F  </i>
   <i type="logical" name="LRPAFORCE"> F  </i>
   <i type="logical" name="LFXC"> F  </i>
   <i type="logical" name="LHARTREE"> T  </i>
   <i type="int" name="IBSE">     0</i>
   <v type="int" name="KPOINT">    -1     0     0     0</v>
   <i type="logical" name="LTCTE"> F  </i>
   <i type="logical" name="LTETE"> F  </i>
   <i type="logical" name="LTRIPLET"> F  </i>
   <i type="logical" name="LFXCEPS"> F  </i>
   <i type="logical" name="LFXHEG"> F  </i>
   <i type="int" name="NATURALO">     2</i>
   <i type="logical" name="L2ORDER"> F  </i>
   <i type="logical" name="LMP2LT"> F  </i>
   <i type="logical" name="LUSEW"> F  </i>
   <i name="ENCUTGW">     -2.00000000</i>
   <i name="ENCUTGWSOFT">     -2.00000000</i>
   <i name="ENCUTLF">     -1.00000000</i>
   <i type="int" name="LMAXMP2">    -1</i>
   <i name="SCISSOR">      0.00000000</i>
   <i type="int" name="NOMEGA">     0</i>
   <i type="int" name="NOMEGAR">     0</i>
   <i type="int" name="NBANDSGW">    -1</i>
   <i type="int" name="NBANDSO">    -1</i>
   <i type="int" name="NBANDSV">    -1</i>
   <i type="int" name="NELM">   200</i>
   <i type="int" name="NELMHF">     1</i>
   <i type="int" name="DIM">     3</i>
   <i type="int" name="ANTIRES">     0</i>
   <i name="OMEGAMAX">    -30.00000000</i>
   <i name="OMEGAMIN">    -30.00000000</i>
   <i name="OMEGATL">   -200.00000000</i>
   <i type="int" name="OMEGAGRID">   140</i>
   <i name="CSHIFT">     -0.10000000</i>
   <i type="logical" name="SELFENERGY"> F  </i>
   <i type="logical" name="LSPECTRAL"> F  </i>
   <i type="logical" name="LSPECTRALGW"> F  </i>
   <i type="logical" name="LSINGLES"> F  </i>
   <i type="logical" name="LFERMIGW"> F  </i>
   <i type="logical" name="ODDONLYGW"> F  </i>
   <i type="logical" name="EVENONLYGW"> F  </i>
   <i type="int" name="NKREDLFX">     1</i>
   <i type="int" name="NKREDLFY">     1</i>
   <i type="int" name="NKREDLFZ">     1</i>
   <i type="int" name="MAXMEM">  2800</i>
   <i type="int" name="TELESCOPE">     0</i>
   <i type="int" name="TAUPAR">     1</i>
   <i type="int" name="OMEGAPAR">    -1</i>
   <i name="LAMBDA">      1.00000000</i>
  </separator>
  <separator name="External order field" >
   <i name="OFIELD_KAPPA">      0.00000000</i>
   <v name="OFIELD_K">      0.00000000      0.00000000      0.00000000</v>
   <i name="OFIELD_Q6_NEAR">      0.00000000</i>
   <i name="OFIELD_Q6_FAR">      0.00000000</i>
   <i name="OFIELD_A">      0.00000000</i>
  </separator>
  <separator name="solvation model" >
   <i type="logical" name="LSOL"> F  </i>
  </separator>
 </parameters>
 <atominfo>
  <atoms>     144 </atoms>
  <types>       4 </types>
  <array name="atoms" >
   <dimension dim="1">ion</dimension>
   <field type="string">element</field>
   <field type="int">atomtype</field>
   <set>
    <rc><c>O </c><c>   1</c></rc>
    <rc><c>O </c><c>   1</c></rc>
    <rc><c>O </c><c>   1</c></rc>
    <rc><c>O </c><c>   1</c></rc>
    <rc><c>O </c><c>   1</c></rc>
    <rc><c>O </c><c>   1</c></rc>
    <rc><c>O </c><c>   1</c></rc>
    <rc><c>O </c><c>   1</c></rc>
    <rc><c>O </c><c>   1</c></rc>
    <rc><c>O </c><c>   1</c></rc>
    <rc><c>O </c><c>   1</c></rc>
    <rc><c>O </c><c>   1</c></rc>
    <rc><c>O </c><c>   1</c></rc>
    <rc><c>O </c><c>   1</c></rc>
    <rc><c>O </c><c>   1</c></rc>
    <rc><c>O </c><c>   1</c></rc>
    <rc><c>O </c><c>   1</c></rc>
    <rc><c>O </c><c>   1</c></rc>
    <rc><c>H </c><c>   2</c></rc>
    <rc><c>H </c><c>   2</c></rc>
    <rc><c>H </c><c>   2</c></rc>
    <rc><c>H </c><c>   2</c></rc>
    <rc><c>H </c><c>   2</c></rc>
    <rc><c>H </c><c>   2</c></rc>
    <rc><c>H </c><c>   2</c></rc>
    <rc><c>H </c><c>   2</c></rc>
    <rc><c>H </c><c>   2</c></rc>
    <rc><c>H </c><c>   2</c></rc>
    <rc><c>H </c><c>   2</c></rc>
    <rc><c>H </c><c>   2</c></rc>
    <rc><c>H </c><c>   2</c></rc>
    <rc><c>H </c><c>   2</c></rc>
    <rc><c>H </c><c>   2</c></rc>
    <rc><c>H </c><c>   2</c></rc>
    <rc><c>H </c><c>   2</c></rc>
    <rc><c>H </c><c>   2</c></rc>
    <rc><c>H </c><c>   2</c></rc>
    <rc><c>H </c><c>   2</c></rc>
    <rc><c>H </c><c>   2</c></rc>
    <rc><c>H </c><c>   2</c></rc>
    <rc><c>H </c><c>   2</c></rc>
    <rc><c>H </c><c>   2</c></rc>
    <rc><c>H </c><c>   2</c></rc>
    <rc><c>H </c><c>   2</c></rc>
    <rc><c>H </c><c>   2</c></rc>
    <rc><c>C </c><c>   3</c></rc>
    <rc><c>C </c><c>   3</c></rc>
    <rc><c>C </c><c>   3</c></rc>
    <rc><c>C </c><c>   3</c></rc>
    <rc><c>C </c><c>   3</c></rc>
    <rc><c>C </c><c>   3</c></rc>
    <rc><c>C </c><c>   3</c></rc>
    <rc><c>C </c><c>   3</c></rc>
    <rc><c>C </c><c>   3</c></rc>
    <rc><c>C </c><c>   3</c></rc>
    <rc><c>C </c><c>   3</c></rc>
    <rc><c>C </c><c>   3</c></rc>
    <rc><c>C </c><c>   3</c></rc>
    <rc><c>C </c><c>   3</c></rc>
    <rc><c>C </c><c>   3</c></rc>
    <rc><c>C </c><c>   3</c></rc>
    <rc><c>C </c><c>   3</c></rc>
    <rc><c>C </c><c>   3</c></rc>
    <rc><c>C </c><c>   3</c></rc>
    <rc><c>C </c><c>   3</c></rc>
    <rc><c>C </c><c>   3</c></rc>
    <rc><c>C </c><c>   3</c></rc>
    <rc><c>C </c><c>   3</c></rc>
    <rc><c>C </c><c>   3</c></rc>
    <rc><c>C </c><c>   3</c></rc>
    <rc><c>C </c><c>   3</c></rc>
    <rc><c>C </c><c>   3</c></rc>
    <rc><c>C </c><c>   3</c></rc>
    <rc><c>C </c><c>   3</c></rc>
    <rc><c>C </c><c>   3</c></rc>
    <rc><c>C </c><c>   3</c></rc>
    <rc><c>C </c><c>   3</c></rc>
    <rc><c>C </c><c>   3</c></rc>
    <rc><c>C </c><c>   3</c></rc>
    <rc><c>C </c><c>   3</c></rc>
    <rc><c>C </c><c>   3</c></rc>
    <rc><c>C </c><c>   3</c></rc>
    <rc><c>C </c><c>   3</c></rc>
    <rc><c>C </c><c>   3</c></rc>
    <rc><c>C </c><c>   3</c></rc>
    <rc><c>C </c><c>   3</c></rc>
    <rc><c>C </c><c>   3</c></rc>
    <rc><c>C </c><c>   3</c></rc>
    <rc><c>C </c><c>   3</c></rc>
    <rc><c>C </c><c>   3</c></rc>
    <rc><c>C </c><c>   3</c></rc>
    <rc><c>C </c><c>   3</c></rc>
    <rc><c>C </c><c>   3</c></rc>
    <rc><c>C </c><c>   3</c></rc>
    <rc><c>C </c><c>   3</c></rc>
    <rc><c>C </c><c>   3</c></rc>
    <rc><c>C </c><c>   3</c></rc>
    <rc><c>C </c><c>   3</c></rc>
    <rc><c>C </c><c>   3</c></rc>
    <rc><c>C </c><c>   3</c></rc>
    <rc><c>C </c><c>   3</c></rc>
    <rc><c>C </c><c>   3</c></rc>
    <rc><c>C </c><c>   3</c></rc>
    <rc><c>C </c><c>   3</c></rc>
    <rc><c>C </c><c>   3</c></rc>
    <rc><c>C </c><c>   3</c></rc>
    <rc><c>C </c><c>   3</c></rc>
    <rc><c>C </c><c>   3</c></rc>
    <rc><c>C </c><c>   3</c></rc>
    <rc><c>C </c><c>   3</c></rc>
    <rc><c>C </c><c>   3</c></rc>
    <rc><c>C </c><c>   3</c></rc>
    <rc><c>C </c><c>   3</c></rc>
    <rc><c>C </c><c>   3</c></rc>
    <rc><c>C </c><c>   3</c></rc>
    <rc><c>C </c><c>   3</c></rc>
    <rc><c>C </c><c>   3</c></rc>
    <rc><c>N </c><c>   4</c></rc>
    <rc><c>N </c><c>   4</c></rc>
    <rc><c>N </c><c>   4</c></rc>
    <rc><c>N </c><c>   4</c></rc>
    <rc><c>N </c><c>   4</c></rc>
    <rc><c>N </c><c>   4</c></rc>
    <rc><c>N </c><c>   4</c></rc>
    <rc><c>N </c><c>   4</c></rc>
    <rc><c>N </c><c>   4</c></rc>
    <rc><c>N </c><c>   4</c></rc>
    <rc><c>N </c><c>   4</c></rc>
    <rc><c>N </c><c>   4</c></rc>
    <rc><c>N </c><c>   4</c></rc>
    <rc><c>N </c><c>   4</c></rc>
    <rc><c>N </c><c>   4</c></rc>
    <rc><c>N </c><c>   4</c></rc>
    <rc><c>N </c><c>   4</c></rc>
    <rc><c>N </c><c>   4</c></rc>
    <rc><c>N </c><c>   4</c></rc>
    <rc><c>N </c><c>   4</c></rc>
    <rc><c>N </c><c>   4</c></rc>
    <rc><c>N </c><c>   4</c></rc>
    <rc><c>N </c><c>   4</c></rc>
    <rc><c>N </c><c>   4</c></rc>
    <rc><c>N </c><c>   4</c></rc>
    <rc><c>N </c><c>   4</c></rc>
    <rc><c>N </c><c>   4</c></rc>
   </set>
  </array>
  <array name="atomtypes" >
   <dimension dim="1">type</dimension>
   <field type="int">atomspertype</field>
   <field type="string">element</field>
   <field>mass</field>
   <field>valence</field>
   <field type="string">pseudopotential</field>
   <set>
    <rc><c>  18</c><c>O </c><c>     16.00000000</c><c>      6.00000000</c><c>  PAW_PBE O 08Apr2002                   </c></rc>
    <rc><c>  27</c><c>H </c><c>      1.00000000</c><c>      1.00000000</c><c>  PAW_PBE H 15Jun2001                   </c></rc>
    <rc><c>  72</c><c>C </c><c>     12.01100000</c><c>      4.00000000</c><c>  PAW_PBE C 08Apr2002                   </c></rc>
    <rc><c>  27</c><c>N </c><c>     14.00100000</c><c>      5.00000000</c><c>  PAW_PBE N 08Apr2002                   </c></rc>
   </set>
  </array>
 </atominfo>
 <structure name="initialpos" >
  <crystal>
   <varray name="basis" >
    <v>      29.49021797      -0.01980232       0.00000000 </v>
    <v>     -14.76226884      25.61905073       0.00000000 </v>
    <v>       0.00000000       0.00000000      20.00000000 </v>
   </varray>
   <i name="volume">  15104.38125983 </i>
   <varray name="rec_basis" >
    <v>       0.03392267       0.01954700       0.00000000 </v>
    <v>       0.00002622       0.03904856       0.00000000 </v>
    <v>       0.00000000       0.00000000       0.05000000 </v>
   </varray>
  </crystal>
  <varray name="positions" >
   <v>       0.03977049       0.62297422       0.41910204 </v>
   <v>       0.08771699       0.60136801       0.35637884 </v>
   <v>       0.19313219       0.66034755       0.66629510 </v>
   <v>       0.27515510       0.69622577       0.70065966 </v>
   <v>       0.43947936       0.74091074       0.69782036 </v>
   <v>       0.48865262       0.82302529       0.66594198 </v>
   <v>       0.32402704       0.58016552       0.69955717 </v>
   <v>       0.35804709       0.53180194       0.66796665 </v>
   <v>       0.74469736       0.31132767       0.70005626 </v>
   <v>       0.82582307       0.33559561       0.66982453 </v>
   <v>       0.58598052       0.27167604       0.69992132 </v>
   <v>       0.53004574       0.19095212       0.66808542 </v>
   <v>       0.70678582       0.42906471       0.69957436 </v>
   <v>       0.68154768       0.48486982       0.66863560 </v>
   <v>       0.60444629       0.97675541       0.41961227 </v>
   <v>       0.53460739       0.93042708       0.35663409 </v>
   <v>       0.39340939       0.41206179       0.42273652 </v>
   <v>       0.41460978       0.48078150       0.35878712 </v>
   <v>       0.13202432       0.48703921       0.47854987 </v>
   <v>       0.12578554       0.63015414       0.48506335 </v>
   <v>       0.21952537       0.48173774       0.44417285 </v>
   <v>       0.26031271       0.62711994       0.56098688 </v>
   <v>       0.37665494       0.88629055       0.48041972 </v>
   <v>       0.52586522       0.89134947       0.48552808 </v>
   <v>       0.38766954       0.75666318       0.55918181 </v>
   <v>       0.53141909       0.64048983       0.47763705 </v>
   <v>       0.38749136       0.49165453       0.48729083 </v>
   <v>       0.39169791       0.63019990       0.55988299 </v>
   <v>       0.90251702       0.51183366       0.48287754 </v>
   <v>       0.89276009       0.36095027       0.48492419 </v>
   <v>       0.76614424       0.37739398       0.56295654 </v>
   <v>       0.63189493       0.11493074       0.48538543 </v>
   <v>       0.49068326       0.12520150       0.48428354 </v>
   <v>       0.63351231       0.25184956       0.56232569 </v>
   <v>       0.50459565       0.38551265       0.48333859 </v>
   <v>       0.65630229       0.52609716       0.48447858 </v>
   <v>       0.63929898       0.38313920       0.56236003 </v>
   <v>       0.97533526       0.40136860       0.48004472 </v>
   <v>       0.44883480       0.04288123       0.48620443 </v>
   <v>       0.61644823       0.56856702       0.47978846 </v>
   <v>       0.28412985       0.79770744       0.44201619 </v>
   <v>       0.53576364       0.73344223       0.44099202 </v>
   <v>       0.72875242       0.19970234       0.44672303 </v>
   <v>       0.49338768       0.28893500       0.44425969 </v>
   <v>       0.81714273       0.52301223       0.44463120 </v>
   <v>       0.12272275       0.55485897       0.47958771 </v>
   <v>       0.06725371       0.52358293       0.46006497 </v>
   <v>       0.03425173       0.54216825       0.43658439 </v>
   <v>       0.19592410       0.63470826       0.52274126 </v>
   <v>       0.22164465       0.60705463       0.53784693 </v>
   <v>       0.20008254       0.55433117       0.52055765 </v>
   <v>       0.15068305       0.52839528       0.49093500 </v>
   <v>       0.14618348       0.60851743       0.49369537 </v>
   <v>       0.22696807       0.69158304       0.53429365 </v>
   <v>       0.23454606       0.53212388       0.53234379 </v>
   <v>       0.25850408       0.71306270       0.59176193 </v>
   <v>       0.24633892       0.50400968       0.48461304 </v>
   <v>       0.45996808       0.82110069       0.52190888 </v>
   <v>       0.40646620       0.79553195       0.53685482 </v>
   <v>       0.37549625       0.81760875       0.52046749 </v>
   <v>       0.39924606       0.86730125       0.49201157 </v>
   <v>       0.45375729       0.89504083       0.48085368 </v>
   <v>       0.48375794       0.87110659       0.49395829 </v>
   <v>       0.38350059       0.55774291       0.52335052 </v>
   <v>       0.41154802       0.61122603       0.53728265 </v>
   <v>       0.46436981       0.64198983       0.51954956 </v>
   <v>       0.49001426       0.61806942       0.49046489 </v>
   <v>       0.46315921       0.56357047       0.48019523 </v>
   <v>       0.40942314       0.53373755       0.49494593 </v>
   <v>       0.82644570       0.36309371       0.52504541 </v>
   <v>       0.80490062       0.39460673       0.54024881 </v>
   <v>       0.83070462       0.44770911       0.52334211 </v>
   <v>       0.88053342       0.47029944       0.49480492 </v>
   <v>       0.90431439       0.43980505       0.48362650 </v>
   <v>       0.87621281       0.38577170       0.49628247 </v>
   <v>       0.55900533       0.19150344       0.52437745 </v>
   <v>       0.61207677       0.21303821       0.54003022 </v>
   <v>       0.63949535       0.18706595       0.52416409 </v>
   <v>       0.61229991       0.13708993       0.49634587 </v>
   <v>       0.55800624       0.11341673       0.48478998 </v>
   <v>       0.53202483       0.14169123       0.49618674 </v>
   <v>       0.65386800       0.45765563       0.52443383 </v>
   <v>       0.62212725       0.40471947       0.53981090 </v>
   <v>       0.56880771       0.37759521       0.52324580 </v>
   <v>       0.54628378       0.40492712       0.49497860 </v>
   <v>       0.57708074       0.45910844       0.48370334 </v>
   <v>       0.63128019       0.48481745       0.49591841 </v>
   <v>       0.99178101       0.44317480       0.47186504 </v>
   <v>       0.47385679       0.02622810       0.47614276 </v>
   <v>       0.57445347       0.54341560       0.47196035 </v>
   <v>       0.31864137       0.78343733       0.53180091 </v>
   <v>       0.48582215       0.78992953       0.53304165 </v>
   <v>       0.48678170       0.69871402       0.53054261 </v>
   <v>       0.47555408       0.75826708       0.59034624 </v>
   <v>       0.32655811       0.53231348       0.53533676 </v>
   <v>       0.30555292       0.54367357       0.59224686 </v>
   <v>       0.79157275       0.30666221       0.53664475 </v>
   <v>       0.69670321       0.21818009       0.53548745 </v>
   <v>       0.75949746       0.28767057       0.59410671 </v>
   <v>       0.53704210       0.22613808       0.53528642 </v>
   <v>       0.54265279       0.32048285       0.53417329 </v>
   <v>       0.54904917       0.25767575       0.59302931 </v>
   <v>       0.71046635       0.47926376       0.53559403 </v>
   <v>       0.79941872       0.47359296       0.53428257 </v>
   <v>       0.72986297       0.46681250       0.59313901 </v>
   <v>       0.95995284       0.46609488       0.46400366 </v>
   <v>       0.47820544       0.95065933       0.46252737 </v>
   <v>       0.52845223       0.05771868       0.46624711 </v>
   <v>       0.52960788       0.98332309       0.43823462 </v>
   <v>       0.49407524       0.53895577       0.46088643 </v>
   <v>       0.55103927       0.48867965       0.46443979 </v>
   <v>       0.47485936       0.48720742       0.43801511 </v>
   <v>       0.27923826       0.77127213       0.48304899 </v>
   <v>       0.51396924       0.73813264       0.48195480 </v>
   <v>       0.73546362       0.22728869       0.48702349 </v>
   <v>       0.51386083       0.28209880       0.48504715 </v>
   <v>       0.78980616       0.50250328       0.48537436 </v>
   <v>       0.04350607       0.47199271       0.47268150 </v>
   <v>       0.05553177       0.59325923       0.40119587 </v>
   <v>       0.24125186       0.68790101       0.65885441 </v>
   <v>       0.26293767       0.54707636       0.58867135 </v>
   <v>       0.23596861       0.72456681       0.48340235 </v>
   <v>       0.45072437       0.97461661       0.47692800 </v>
   <v>       0.54593309       0.56660514       0.47289238 </v>
   <v>       0.30453156       0.75560320       0.58850490 </v>
   <v>       0.47250651       0.71251082       0.58712724 </v>
   <v>       0.46685817       0.77505797       0.65728591 </v>
   <v>       0.33124519       0.55299656       0.65917161 </v>
   <v>       0.71218367       0.24694774       0.59148061 </v>
   <v>       0.77777861       0.31362765       0.66057324 </v>
   <v>       0.55524915       0.30476973       0.59054915 </v>
   <v>       0.55593002       0.23896927       0.65962348 </v>
   <v>       0.77087629       0.46065489       0.59049671 </v>
   <v>       0.70398503       0.45926811       0.65971949 </v>
   <v>       0.98295027       0.51566237       0.44209140 </v>
   <v>       0.55467390       0.03451868       0.44347899 </v>
   <v>       0.55900308       0.96183010       0.40196517 </v>
   <v>       0.50117337       0.46224866       0.44323148 </v>
   <v>       0.42314024       0.45719929       0.40377363 </v>
   <v>       0.51021722       0.78121290       0.48230756 </v>
   <v>       0.29310728       0.50737016       0.48510857 </v>
   <v>       0.78055797       0.27252071       0.48659706 </v>
   <v>       0.51436968       0.23724401       0.48469537 </v>
   <v>       0.74435082       0.50203657       0.48509813 </v>
  </varray>
 </structure>
 <calculation>
  <scstep>
   <time name="dav">  485.89  490.90</time>
   <time name="total">  486.19  491.20</time>
   <energy>
    <i name="alphaZ">     93.94988361 </i>
    <i name="ewald">  80463.86342538 </i>
    <i name="hartreedc">-101663.33816258 </i>
    <i name="XCdc">   2114.44379318 </i>
    <i name="pawpsdc">  52964.83724949 </i>
    <i name="pawaedc"> -53085.95621960 </i>
    <i name="eentropy">     -0.00000000 </i>
    <i name="bandstr">  -7800.98873211 </i>
    <i name="atom">  25856.67672525 </i>
    <i name="e_fr_energy">  -1056.51203738 </i>
    <i name="e_wo_entrp">  -1056.51203738 </i>
    <i name="e_0_energy">  -1056.51203738 </i>
   </energy>
  </scstep>
  <scstep>
   <time name="dav">  536.51  542.00</time>
   <time name="total">  536.54  542.03</time>
   <energy>
    <i name="e_fr_energy">  -1057.29006140 </i>
    <i name="e_wo_entrp">  -1057.29006140 </i>
    <i name="e_0_energy">  -1057.29006140 </i>
   </energy>
  </scstep>
  <scstep>
   <time name="dav">  623.03  629.29</time>
   <time name="total">  623.06  629.32</time>
   <energy>
    <i name="e_fr_energy">  -1057.31199438 </i>
    <i name="e_wo_entrp">  -1057.31199438 </i>
    <i name="e_0_energy">  -1057.31199438 </i>
   </energy>
  </scstep>
  <scstep>
   <time name="dav">  527.30  532.77</time>
   <time name="total">  527.33  532.80</time>
   <energy>
    <i name="e_fr_energy">  -1057.31235671 </i>
    <i name="e_wo_entrp">  -1057.31235671 </i>
    <i name="e_0_energy">  -1057.31235671 </i>
   </energy>
  </scstep>
  <scstep>
   <time name="dav">  499.79  504.86</time>
   <time name="total">  499.81  504.88</time>
   <energy>
    <i name="e_fr_energy">  -1057.31237140 </i>
    <i name="e_wo_entrp">  -1057.31237140 </i>
    <i name="e_0_energy">  -1057.31237140 </i>
   </energy>
  </scstep>
  <scstep>
   <time name="dav">  388.33  392.24</time>
   <time name="total">  388.36  392.27</time>
   <energy>
    <i name="alphaZ">     93.94988361 </i>
    <i name="ewald">  80463.86342538 </i>
    <i name="hartreedc">-101663.33816258 </i>
    <i name="XCdc">   2114.44379318 </i>
    <i name="pawpsdc">  52964.83724949 </i>
    <i name="pawaedc"> -53085.95621960 </i>
    <i name="eentropy">     -0.00000000 </i>
    <i name="bandstr">  -7801.78906654 </i>
    <i name="atom">  25856.67672525 </i>
    <i name="e_fr_energy">  -1057.31237182 </i>
    <i name="e_wo_entrp">  -1057.31237182 </i>
    <i name="e_0_energy">  -1057.31237182 </i>
   </energy>
  </scstep>
  <structure>
   <crystal>
    <varray name="basis" >
     <v>      29.49021797      -0.01980232       0.00000000 </v>
     <v>     -14.76226884      25.61905073       0.00000000 </v>
     <v>       0.00000000       0.00000000      20.00000000 </v>
    </varray>
    <i name="volume">  15104.38125983 </i>
    <varray name="rec_basis" >
     <v>       0.03392267       0.01954700       0.00000000 </v>
     <v>       0.00002622       0.03904856       0.00000000 </v>
     <v>       0.00000000       0.00000000       0.05000000 </v>
    </varray>
   </crystal>
   <varray name="positions" >
    <v>       0.03977049       0.62297422       0.41910204 </v>
    <v>       0.08771699       0.60136801       0.35637884 </v>
    <v>       0.19313219       0.66034755       0.66629510 </v>
    <v>       0.27515510       0.69622577       0.70065966 </v>
    <v>       0.43947936       0.74091074       0.69782036 </v>
    <v>       0.48865262       0.82302529       0.66594198 </v>
    <v>       0.32402704       0.58016552       0.69955717 </v>
    <v>       0.35804709       0.53180194       0.66796665 </v>
    <v>       0.74469736       0.31132767       0.70005626 </v>
    <v>       0.82582307       0.33559561       0.66982453 </v>
    <v>       0.58598052       0.27167604       0.69992132 </v>
    <v>       0.53004574       0.19095212       0.66808542 </v>
    <v>       0.70678582       0.42906471       0.69957436 </v>
    <v>       0.68154768       0.48486982       0.66863560 </v>
    <v>       0.60444629       0.97675541       0.41961227 </v>
    <v>       0.53460739       0.93042708       0.35663409 </v>
    <v>       0.39340939       0.41206179       0.42273652 </v>
    <v>       0.41460978       0.48078150       0.35878712 </v>
    <v>       0.13202432       0.48703921       0.47854987 </v>
    <v>       0.12578554       0.63015414       0.48506335 </v>
    <v>       0.21952537       0.48173774       0.44417285 </v>
    <v>       0.26031271       0.62711994       0.56098688 </v>
    <v>       0.37665494       0.88629055       0.48041972 </v>
    <v>       0.52586522       0.89134947       0.48552808 </v>
    <v>       0.38766954       0.75666318       0.55918181 </v>
    <v>       0.53141909       0.64048983       0.47763705 </v>
    <v>       0.38749136       0.49165453       0.48729083 </v>
    <v>       0.39169791       0.63019990       0.55988299 </v>
    <v>       0.90251702       0.51183366       0.48287754 </v>
    <v>       0.89276009       0.36095027       0.48492419 </v>
    <v>       0.76614424       0.37739398       0.56295654 </v>
    <v>       0.63189493       0.11493074       0.48538543 </v>
    <v>       0.49068326       0.12520150       0.48428354 </v>
    <v>       0.63351231       0.25184956       0.56232569 </v>
    <v>       0.50459565       0.38551265       0.48333859 </v>
    <v>       0.65630229       0.52609716       0.48447858 </v>
    <v>       0.63929898       0.38313920       0.56236003 </v>
    <v>       0.97533526       0.40136860       0.48004472 </v>
    <v>       0.44883480       0.04288123       0.48620443 </v>
    <v>       0.61644823       0.56856702       0.47978846 </v>
    <v>       0.28412985       0.79770744       0.44201619 </v>
    <v>       0.53576364       0.73344223       0.44099202 </v>
    <v>       0.72875242       0.19970234       0.44672303 </v>
    <v>       0.49338768       0.28893500       0.44425969 </v>
    <v>       0.81714273       0.52301223       0.44463120 </v>
    <v>       0.12272275       0.55485897       0.47958771 </v>
    <v>       0.06725371       0.52358293       0.46006497 </v>
    <v>       0.03425173       0.54216825       0.43658439 </v>
    <v>       0.19592410       0.63470826       0.52274126 </v>
    <v>       0.22164465       0.60705463       0.53784693 </v>
    <v>       0.20008254       0.55433117       0.52055765 </v>
    <v>       0.15068305       0.52839528       0.49093500 </v>
    <v>       0.14618348       0.60851743       0.49369537 </v>
    <v>       0.22696807       0.69158304       0.53429365 </v>
    <v>       0.23454606       0.53212388       0.53234379 </v>
    <v>       0.25850408       0.71306270       0.59176193 </v>
    <v>       0.24633892       0.50400968       0.48461304 </v>
    <v>       0.45996808       0.82110069       0.52190888 </v>
    <v>       0.40646620       0.79553195       0.53685482 </v>
    <v>       0.37549625       0.81760875       0.52046749 </v>
    <v>       0.39924606       0.86730125       0.49201157 </v>
    <v>       0.45375729       0.89504083       0.48085368 </v>
    <v>       0.48375794       0.87110659       0.49395829 </v>
    <v>       0.38350059       0.55774291       0.52335052 </v>
    <v>       0.41154802       0.61122603       0.53728265 </v>
    <v>       0.46436981       0.64198983       0.51954956 </v>
    <v>       0.49001426       0.61806942       0.49046489 </v>
    <v>       0.46315921       0.56357047       0.48019523 </v>
    <v>       0.40942314       0.53373755       0.49494593 </v>
    <v>       0.82644570       0.36309371       0.52504541 </v>
    <v>       0.80490062       0.39460673       0.54024881 </v>
    <v>       0.83070462       0.44770911       0.52334211 </v>
    <v>       0.88053342       0.47029944       0.49480492 </v>
    <v>       0.90431439       0.43980505       0.48362650 </v>
    <v>       0.87621281       0.38577170       0.49628247 </v>
    <v>       0.55900533       0.19150344       0.52437745 </v>
    <v>       0.61207677       0.21303821       0.54003022 </v>
    <v>       0.63949535       0.18706595       0.52416409 </v>
    <v>       0.61229991       0.13708993       0.49634587 </v>
    <v>       0.55800624       0.11341673       0.48478998 </v>
    <v>       0.53202483       0.14169123       0.49618674 </v>
    <v>       0.65386800       0.45765563       0.52443383 </v>
    <v>       0.62212725       0.40471947       0.53981090 </v>
    <v>       0.56880771       0.37759521       0.52324580 </v>
    <v>       0.54628378       0.40492712       0.49497860 </v>
    <v>       0.57708074       0.45910844       0.48370334 </v>
    <v>       0.63128019       0.48481745       0.49591841 </v>
    <v>       0.99178101       0.44317480       0.47186504 </v>
    <v>       0.47385679       0.02622810       0.47614276 </v>
    <v>       0.57445347       0.54341560       0.47196035 </v>
    <v>       0.31864137       0.78343733       0.53180091 </v>
    <v>       0.48582215       0.78992953       0.53304165 </v>
    <v>       0.48678170       0.69871402       0.53054261 </v>
    <v>       0.47555408       0.75826708       0.59034624 </v>
    <v>       0.32655811       0.53231348       0.53533676 </v>
    <v>       0.30555292       0.54367357       0.59224686 </v>
    <v>       0.79157275       0.30666221       0.53664475 </v>
    <v>       0.69670321       0.21818009       0.53548745 </v>
    <v>       0.75949746       0.28767057       0.59410671 </v>
    <v>       0.53704210       0.22613808       0.53528642 </v>
    <v>       0.54265279       0.32048285       0.53417329 </v>
    <v>       0.54904917       0.25767575       0.59302931 </v>
    <v>       0.71046635       0.47926376       0.53559403 </v>
    <v>       0.79941872       0.47359296       0.53428257 </v>
    <v>       0.72986297       0.46681250       0.59313901 </v>
    <v>       0.95995284       0.46609488       0.46400366 </v>
    <v>       0.47820544       0.95065933       0.46252737 </v>
    <v>       0.52845223       0.05771868       0.46624711 </v>
    <v>       0.52960788       0.98332309       0.43823462 </v>
    <v>       0.49407524       0.53895577       0.46088643 </v>
    <v>       0.55103927       0.48867965       0.46443979 </v>
    <v>       0.47485936       0.48720742       0.43801511 </v>
    <v>       0.27923826       0.77127213       0.48304899 </v>
    <v>       0.51396924       0.73813264       0.48195480 </v>
    <v>       0.73546362       0.22728869       0.48702349 </v>
    <v>       0.51386083       0.28209880       0.48504715 </v>
    <v>       0.78980616       0.50250328       0.48537436 </v>
    <v>       0.04350607       0.47199271       0.47268150 </v>
    <v>       0.05553177       0.59325923       0.40119587 </v>
    <v>       0.24125186       0.68790101       0.65885441 </v>
    <v>       0.26293767       0.54707636       0.58867135 </v>
    <v>       0.23596861       0.72456681       0.48340235 </v>
    <v>       0.45072437       0.97461661       0.47692800 </v>
    <v>       0.54593309       0.56660514       0.47289238 </v>
    <v>       0.30453156       0.75560320       0.58850490 </v>
    <v>       0.47250651       0.71251082       0.58712724 </v>
    <v>       0.46685817       0.77505797       0.65728591 </v>
    <v>       0.33124519       0.55299656       0.65917161 </v>
    <v>       0.71218367       0.24694774       0.59148061 </v>
    <v>       0.77777861       0.31362765       0.66057324 </v>
    <v>       0.55524915       0.30476973       0.59054915 </v>
    <v>       0.55593002       0.23896927       0.65962348 </v>
    <v>       0.77087629       0.46065489       0.59049671 </v>
    <v>       0.70398503       0.45926811       0.65971949 </v>
    <v>       0.98295027       0.51566237       0.44209140 </v>
    <v>       0.55467390       0.03451868       0.44347899 </v>
    <v>       0.55900308       0.96183010       0.40196517 </v>
    <v>       0.50117337       0.46224866       0.44323148 </v>
    <v>       0.42314024       0.45719929       0.40377363 </v>
    <v>       0.51021722       0.78121290       0.48230756 </v>
    <v>       0.29310728       0.50737016       0.48510857 </v>
    <v>       0.78055797       0.27252071       0.48659706 </v>
    <v>       0.51436968       0.23724401       0.48469537 </v>
    <v>       0.74435082       0.50203657       0.48509813 </v>
   </varray>
  </structure>
  <varray name="forces" >
   <v>      -0.00009696      -0.00501594      -0.00254146 </v>
   <v>       0.00544757       0.00135010      -0.00522191 </v>
   <v>      -0.00272324       0.00032919       0.00453507 </v>
   <v>       0.00456782       0.00089462       0.00600228 </v>
   <v>      -0.00083861       0.00124724       0.00046860 </v>
   <v>       0.00069428      -0.00101194      -0.00012235 </v>
   <v>      -0.00127718       0.00419858       0.00297936 </v>
   <v>       0.00147841       0.00157957       0.00060564 </v>
   <v>      -0.00182092       0.00034859       0.00031795 </v>
   <v>      -0.00055054      -0.00067663      -0.00184012 </v>
   <v>      -0.00204856      -0.00117559       0.00568563 </v>
   <v>       0.00037874       0.00312536       0.00346964 </v>
   <v>       0.00143831       0.00398181      -0.00539954 </v>
   <v>      -0.00043978       0.00182445       0.00006454 </v>
   <v>      -0.00296794      -0.00047987      -0.00022960 </v>
   <v>       0.00001107      -0.00556297      -0.00276348 </v>
   <v>      -0.00092792      -0.00372352       0.00257828 </v>
   <v>       0.00078728       0.00193402      -0.00178927 </v>
   <v>       0.00117643      -0.00049163      -0.00135454 </v>
   <v>      -0.00008618       0.00031965      -0.00084504 </v>
   <v>      -0.00004744      -0.00240075      -0.00204712 </v>
   <v>      -0.00114746      -0.00007811       0.00160042 </v>
   <v>      -0.00087762       0.00109396      -0.00053205 </v>
   <v>       0.00072316       0.00107461      -0.00024370 </v>
   <v>      -0.00111842       0.00091060      -0.00089206 </v>
   <v>      -0.00030210      -0.00018490      -0.00055202 </v>
   <v>       0.00058878       0.00083790      -0.00030205 </v>
   <v>      -0.00104357       0.00061674       0.00094576 </v>
   <v>      -0.00077906       0.00137143      -0.00103301 </v>
   <v>       0.00007433       0.00172673      -0.00128384 </v>
   <v>       0.00091072       0.00134615      -0.00000963 </v>
   <v>      -0.00073596       0.00071931      -0.00177704 </v>
   <v>      -0.00030022       0.00117646       0.00173108 </v>
   <v>      -0.00006238       0.00031114       0.00387794 </v>
   <v>      -0.00101360      -0.00030896       0.00044938 </v>
   <v>       0.00054905      -0.00096198      -0.00068232 </v>
   <v>       0.00135528       0.00004529       0.00199547 </v>
   <v>       0.00119554       0.00126649       0.00100286 </v>
   <v>       0.00145519      -0.00084615      -0.00112755 </v>
   <v>      -0.00072223       0.00182266      -0.00142679 </v>
   <v>      -0.00085401       0.00140757      -0.00086791 </v>
   <v>       0.00198659      -0.00086990      -0.00103937 </v>
   <v>      -0.00018982       0.00015166      -0.00066608 </v>
   <v>       0.00123273      -0.00051709      -0.00043902 </v>
   <v>      -0.00220772      -0.00008122       0.00201288 </v>
   <v>      -0.00370711       0.00104502      -0.00208733 </v>
   <v>      -0.00083609       0.00091199      -0.00498837 </v>
   <v>       0.00403290       0.00000171      -0.00249651 </v>
   <v>       0.00017453       0.00187381      -0.00057999 </v>
   <v>      -0.00026885       0.00354646      -0.00105118 </v>
   <v>      -0.00071283       0.00066582      -0.00171086 </v>
   <v>       0.00055509      -0.00054329       0.00048117 </v>
   <v>       0.00037800      -0.00085039      -0.00209524 </v>
   <v>      -0.00100220       0.00373458       0.00136625 </v>
   <v>       0.00184391      -0.00339679      -0.00200605 </v>
   <v>      -0.00072411      -0.00325587       0.00013352 </v>
   <v>      -0.00070231       0.00431077       0.00480727 </v>
   <v>      -0.00210324      -0.00125793       0.00141925 </v>
   <v>       0.00250557      -0.00107855      -0.00098035 </v>
   <v>       0.00008969       0.00126686       0.00044549 </v>
   <v>      -0.00076011      -0.00078486      -0.00025032 </v>
   <v>      -0.00020051       0.00059316      -0.00126635 </v>
   <v>       0.00116848       0.00013308       0.00088561 </v>
   <v>       0.00134296      -0.00172317       0.00061053 </v>
   <v>       0.00080323       0.00178460       0.00161808 </v>
   <v>      -0.00035399       0.00116260       0.00103159 </v>
   <v>       0.00045972      -0.00079227      -0.00038602 </v>
   <v>      -0.00040834      -0.00108199      -0.00080148 </v>
   <v>       0.00092408       0.00051020      -0.00070758 </v>
   <v>       0.00191086       0.00013232      -0.00224273 </v>
   <v>      -0.00050454       0.00276533       0.00060305 </v>
   <v>       0.00115146      -0.00088571       0.00120326 </v>
   <v>       0.00117577      -0.00194992      -0.00047204 </v>
   <v>       0.00024904       0.00037783      -0.00045662 </v>
   <v>      -0.00124658       0.00034206      -0.00034490 </v>
   <v>      -0.00098114      -0.00195136       0.00092891 </v>
   <v>      -0.00100423      -0.00078835       0.00073638 </v>
   <v>      -0.00200707       0.00088172       0.00039551 </v>
   <v>       0.00167339      -0.00286247       0.00095655 </v>
   <v>      -0.00125701       0.00017842      -0.00020165 </v>
   <v>       0.00309851      -0.00036995       0.00169215 </v>
   <v>       0.00083130       0.00035032      -0.00069329 </v>
   <v>       0.00090919      -0.00001452       0.00067222 </v>
   <v>      -0.00125649      -0.00075321       0.00108217 </v>
   <v>       0.00152553       0.00010912      -0.00125481 </v>
   <v>       0.00201603       0.00010101       0.00010102 </v>
   <v>       0.00073459      -0.00088567       0.00047172 </v>
   <v>       0.00028350      -0.00580271      -0.00524289 </v>
   <v>       0.00073469      -0.00015078       0.00113283 </v>
   <v>      -0.00111626       0.00181632      -0.00197567 </v>
   <v>      -0.00416836       0.00029204      -0.00087319 </v>
   <v>      -0.00050000       0.00084038       0.00010912 </v>
   <v>      -0.00093471      -0.00141261       0.00122552 </v>
   <v>      -0.00059606      -0.00048027      -0.00039566 </v>
   <v>      -0.00226878       0.00015918      -0.00032001 </v>
   <v>      -0.00776347       0.00219528       0.00094897 </v>
   <v>       0.00001410      -0.00181141       0.00026945 </v>
   <v>      -0.00021850       0.00038005      -0.00105545 </v>
   <v>       0.00050928      -0.00023386       0.00100523 </v>
   <v>      -0.00434092       0.00070453       0.00481448 </v>
   <v>      -0.00337037       0.00167333       0.00322468 </v>
   <v>      -0.00385335      -0.00091839       0.00180229 </v>
   <v>       0.00020081      -0.00000011      -0.00138002 </v>
   <v>       0.00032064      -0.00111875       0.00143573 </v>
   <v>      -0.00123364      -0.00061653       0.00033382 </v>
   <v>       0.00215119      -0.00055100      -0.00159025 </v>
   <v>      -0.00006997      -0.00309878      -0.00009758 </v>
   <v>      -0.00074952      -0.00307114      -0.00217304 </v>
   <v>       0.00135093      -0.00087159      -0.00033901 </v>
   <v>      -0.00243809      -0.00235357      -0.00266386 </v>
   <v>       0.00115738      -0.00237002      -0.00095171 </v>
   <v>       0.00165793       0.00163090       0.00058150 </v>
   <v>       0.00411724       0.00086002      -0.00023925 </v>
   <v>      -0.00281571      -0.00247944       0.00084184 </v>
   <v>      -0.00142757       0.00148141       0.00070786 </v>
   <v>      -0.00377730       0.00219651       0.00032405 </v>
   <v>       0.00079653      -0.00061458      -0.00083870 </v>
   <v>       0.00187132      -0.00620595       0.00323737 </v>
   <v>      -0.00411772      -0.00184463       0.00056801 </v>
   <v>      -0.00100914       0.00083043      -0.00740330 </v>
   <v>       0.00587905      -0.00320496       0.00018719 </v>
   <v>      -0.00022785      -0.00329715       0.00050867 </v>
   <v>       0.00030408       0.00321867       0.00098944 </v>
   <v>       0.00440572       0.00114100       0.00211654 </v>
   <v>       0.00066269       0.00002491       0.00064461 </v>
   <v>       0.00394979      -0.00073359      -0.00118066 </v>
   <v>       0.00073689       0.00198168      -0.00044470 </v>
   <v>       0.00351330      -0.00294351      -0.00461746 </v>
   <v>       0.00127844       0.00059270       0.00066140 </v>
   <v>       0.00242364      -0.00016205      -0.00157457 </v>
   <v>      -0.00459197      -0.00247456       0.00058691 </v>
   <v>      -0.00579692       0.00091681       0.00376944 </v>
   <v>       0.00325241       0.00044955       0.00012516 </v>
   <v>       0.00102867      -0.00262441       0.00217140 </v>
   <v>      -0.00228602      -0.00069018       0.00279931 </v>
   <v>       0.00196479       0.00428872       0.00100800 </v>
   <v>      -0.00007804       0.00462085       0.00143014 </v>
   <v>      -0.00354542      -0.00500262      -0.00085699 </v>
   <v>       0.00092502      -0.00025914      -0.00284025 </v>
   <v>      -0.00107567       0.00521861       0.00169532 </v>
   <v>       0.00324090       0.00075873      -0.00040076 </v>
   <v>       0.00053489       0.00281121      -0.00014051 </v>
   <v>       0.00417947      -0.00073780       0.00089171 </v>
   <v>       0.00053712       0.00287510      -0.00041442 </v>
  </varray>
  <varray name="stress" >
   <v>      -0.00101864      -0.00202579       0.01981953 </v>
   <v>      -0.00202579      -0.00123811       0.00552501 </v>
   <v>       0.01981953       0.00552502      -0.23695341 </v>
  </varray>
  <energy>
   <i name="e_fr_energy">  -1060.84933354 </i>
   <i name="e_wo_entrp">  -1060.84933354 </i>
   <i name="e_0_energy">     -0.00000000 </i>
  </energy>
  <time name="totalsc"> 3542.70 3580.35</time>
  <eigenvalues>
   <array>
    <dimension dim="1">band</dimension>
    <dimension dim="2">kpoint</dimension>
    <dimension dim="3">spin</dimension>
    <field>eigene</field>
    <field>occ</field>
    <set>
     <set comment="spin 1">
      <set comment="kpoint 1">
       <r>  -30.9171    1.0000 </r>
       <r>  -30.9124    1.0000 </r>
       <r>  -30.9071    1.0000 </r>
       <r>  -30.6769    1.0000 </r>
       <r>  -30.6758    1.0000 </r>
       <r>  -30.6724    1.0000 </r>
       <r>  -30.5497    1.0000 </r>
       <r>  -30.5389    1.0000 </r>
       <r>  -30.5349    1.0000 </r>
       <r>  -26.5792    1.0000 </r>
       <r>  -26.5737    1.0000 </r>
       <r>  -26.5669    1.0000 </r>
       <r>  -26.3428    1.0000 </r>
       <r>  -26.3414    1.0000 </r>
       <r>  -26.3382    1.0000 </r>
       <r>  -26.2116    1.0000 </r>
       <r>  -26.2018    1.0000 </r>
       <r>  -26.1969    1.0000 </r>
       <r>  -25.5142    1.0000 </r>
       <r>  -25.5035    1.0000 </r>
       <r>  -25.5007    1.0000 </r>
       <r>  -25.4320    1.0000 </r>
       <r>  -25.4297    1.0000 </r>
       <r>  -25.4248    1.0000 </r>
       <r>  -25.3841    1.0000 </r>
       <r>  -25.3737    1.0000 </r>
       <r>  -25.3725    1.0000 </r>
       <r>  -23.5401    1.0000 </r>
       <r>  -23.5378    1.0000 </r>
       <r>  -23.4975    1.0000 </r>
       <r>  -23.4929    1.0000 </r>
       <r>  -23.4922    1.0000 </r>
       <r>  -23.4896    1.0000 </r>
       <r>  -23.3961    1.0000 </r>
       <r>  -23.3938    1.0000 </r>
       <r>  -23.3630    1.0000 </r>
       <r>  -22.2964    1.0000 </r>
       <r>  -22.2954    1.0000 </r>
       <r>  -22.2169    1.0000 </r>
       <r>  -22.1558    1.0000 </r>
       <r>  -22.1546    1.0000 </r>
       <r>  -22.0679    1.0000 </r>
       <r>  -21.1845    1.0000 </r>
       <r>  -21.1839    1.0000 </r>
       <r>  -21.1604    1.0000 </r>
       <r>  -21.0295    1.0000 </r>
       <r>  -20.9719    1.0000 </r>
       <r>  -20.7909    1.0000 </r>
       <r>  -20.7886    1.0000 </r>
       <r>  -20.4939    1.0000 </r>
       <r>  -20.4915    1.0000 </r>
       <r>  -19.8888    1.0000 </r>
       <r>  -19.8638    1.0000 </r>
       <r>  -19.8634    1.0000 </r>
       <r>  -19.6101    1.0000 </r>
       <r>  -19.6092    1.0000 </r>
       <r>  -19.2822    1.0000 </r>
       <r>  -19.2315    1.0000 </r>
       <r>  -19.2290    1.0000 </r>
       <r>  -19.0875    1.0000 </r>
       <r>  -18.9685    1.0000 </r>
       <r>  -18.9669    1.0000 </r>
       <r>  -18.9559    1.0000 </r>
       <r>  -18.2512    1.0000 </r>
       <r>  -18.2402    1.0000 </r>
       <r>  -18.2397    1.0000 </r>
       <r>  -18.2010    1.0000 </r>
       <r>  -18.2000    1.0000 </r>
       <r>  -18.0721    1.0000 </r>
       <r>  -18.0700    1.0000 </r>
       <r>  -18.0018    1.0000 </r>
       <r>  -17.8501    1.0000 </r>
       <r>  -17.2717    1.0000 </r>
       <r>  -17.2501    1.0000 </r>
       <r>  -17.2474    1.0000 </r>
       <r>  -17.1735    1.0000 </r>
       <r>  -17.1722    1.0000 </r>
       <r>  -17.0653    1.0000 </r>
       <r>  -17.0615    1.0000 </r>
       <r>  -16.9935    1.0000 </r>
       <r>  -16.8754    1.0000 </r>
       <r>  -16.3545    1.0000 </r>
       <r>  -16.1990    1.0000 </r>
       <r>  -15.9526    1.0000 </r>
       <r>  -15.9482    1.0000 </r>
       <r>  -15.8264    1.0000 </r>
       <r>  -15.8039    1.0000 </r>
       <r>  -15.7992    1.0000 </r>
       <r>  -15.6542    1.0000 </r>
       <r>  -15.6513    1.0000 </r>
       <r>  -15.4713    1.0000 </r>
       <r>  -15.4599    1.0000 </r>
       <r>  -15.4549    1.0000 </r>
       <r>  -15.2622    1.0000 </r>
       <r>  -15.2136    1.0000 </r>
       <r>  -15.2127    1.0000 </r>
       <r>  -15.0631    1.0000 </r>
       <r>  -14.9576    1.0000 </r>
       <r>  -14.9552    1.0000 </r>
       <r>  -14.8451    1.0000 </r>
       <r>  -14.7338    1.0000 </r>
       <r>  -14.7332    1.0000 </r>
       <r>  -14.0410    1.0000 </r>
       <r>  -14.0398    1.0000 </r>
       <r>  -14.0025    1.0000 </r>
       <r>  -13.9039    1.0000 </r>
       <r>  -13.9024    1.0000 </r>
       <r>  -13.8805    1.0000 </r>
       <r>  -13.8222    1.0000 </r>
       <r>  -13.7916    1.0000 </r>
       <r>  -13.7901    1.0000 </r>
       <r>  -13.7571    1.0000 </r>
       <r>  -13.7560    1.0000 </r>
       <r>  -13.7024    1.0000 </r>
       <r>  -13.6388    1.0000 </r>
       <r>  -13.6319    1.0000 </r>
       <r>  -13.5534    1.0000 </r>
       <r>  -13.4268    1.0000 </r>
       <r>  -13.4264    1.0000 </r>
       <r>  -13.4042    1.0000 </r>
       <r>  -13.2458    1.0000 </r>
       <r>  -13.2431    1.0000 </r>
       <r>  -13.2333    1.0000 </r>
       <r>  -13.1712    1.0000 </r>
       <r>  -13.1683    1.0000 </r>
       <r>  -13.1128    1.0000 </r>
       <r>  -12.9611    1.0000 </r>
       <r>  -12.9576    1.0000 </r>
       <r>  -12.9501    1.0000 </r>
       <r>  -12.9065    1.0000 </r>
       <r>  -12.9028    1.0000 </r>
       <r>  -12.8735    1.0000 </r>
       <r>  -12.8212    1.0000 </r>
       <r>  -12.8161    1.0000 </r>
       <r>  -12.7827    1.0000 </r>
       <r>  -12.5408    1.0000 </r>
       <r>  -12.5400    1.0000 </r>
       <r>  -12.5248    1.0000 </r>
       <r>  -12.4830    1.0000 </r>
       <r>  -12.4784    1.0000 </r>
       <r>  -12.4578    1.0000 </r>
       <r>  -12.3371    1.0000 </r>
       <r>  -12.3355    1.0000 </r>
       <r>  -12.2682    1.0000 </r>
       <r>  -12.2656    1.0000 </r>
       <r>  -12.2652    1.0000 </r>
       <r>  -12.2184    1.0000 </r>
       <r>  -12.1493    1.0000 </r>
       <r>  -12.1473    1.0000 </r>
[...]
       <r>   -21.6414     0.0000    84.0000 </r>
       <r>   -21.5245     0.0000    84.0000 </r>
       <r>   -21.4076     0.0000    84.0000 </r>
       <r>   -21.2907     0.0000    84.0000 </r>
       <r>   -21.1738    20.5581    86.4028 </r>
       <r>   -21.0570     6.7227    90.7857 </r>
       <r>   -20.9401     5.9892    94.0000 </r>
       <r>   -20.8232     0.0000    94.0000 </r>
       <r>   -20.7063     5.8738    96.8198 </r>
       <r>   -20.5895     9.0808    98.3613 </r>
       <r>   -20.4726    24.5008   101.9969 </r>
       <r>   -20.3557     0.0000   102.0000 </r>
       <r>   -20.2388     0.0000   102.0000 </r>
       <r>   -20.1220     0.0000   102.0000 </r>
       <r>   -20.0051     0.0000   102.0000 </r>
       <r>   -19.8882    10.8594   103.2692 </r>
       <r>   -19.7713    10.8376   108.0000 </r>
       <r>   -19.6544     0.0000   108.0000 </r>
       <r>   -19.5376    25.8067   111.6495 </r>
       <r>   -19.4207     8.7523   113.0229 </r>
       <r>   -19.3038     4.1667   113.7537 </r>
       <r>   -19.1869    20.5769   116.4050 </r>
       <r>   -19.0701    26.5687   119.7719 </r>
       <r>   -18.9532    37.2312   124.3514 </r>
       <r>   -18.8363     0.0000   126.0000 </r>
       <r>   -18.7194     0.0000   126.0000 </r>
       <r>   -18.6026     0.0000   126.0000 </r>
       <r>   -18.4857     0.0000   126.0000 </r>
       <r>   -18.3688     0.0000   126.0000 </r>
       <r>   -18.2519     8.6350   127.0092 </r>
       <r>   -18.1351    30.2313   136.0000 </r>
       <r>   -18.0182    34.2695   140.0053 </r>
       <r>   -17.9013     0.0000   142.0000 </r>
       <r>   -17.7844    17.1121   144.0000 </r>
       <r>   -17.6675     0.0000   144.0000 </r>
       <r>   -17.5507     0.0000   144.0000 </r>
       <r>   -17.4338     0.0000   144.0000 </r>
       <r>   -17.3169     0.0000   144.0000 </r>
       <r>   -17.2000    51.3390   150.0003 </r>
       <r>   -17.0832     3.2899   154.3845 </r>
       <r>   -16.9663    17.0207   159.9893 </r>
       <r>   -16.8494    17.1106   161.9998 </r>
       <r>   -16.7325     0.0000   162.0000 </r>
       <r>   -16.6157     0.0000   162.0000 </r>
       <r>   -16.4988     0.0000   162.0000 </r>
       <r>   -16.3819     0.0001   162.0000 </r>
       <r>   -16.2650     9.1264   164.0000 </r>
       <r>   -16.1482    17.1121   166.0000 </r>
       <r>   -16.0313     0.0000   166.0000 </r>
       <r>   -15.9144    25.7838   169.0135 </r>
       <r>   -15.7975    37.5587   174.3897 </r>
       <r>   -15.6806     0.1509   176.0176 </r>
       <r>   -15.5638     0.0000   180.0000 </r>
       <r>   -15.4469    28.2477   183.3015 </r>
       <r>   -15.3300     0.0000   186.0000 </r>
       <r>   -15.2131    46.2551   191.4061 </r>
       <r>   -15.0963     0.0000   192.0000 </r>
       <r>   -14.9794    14.9190   194.4437 </r>
       <r>   -14.8625    12.2750   198.0013 </r>
       <r>   -14.7456    31.8912   202.2940 </r>
       <r>   -14.6288     0.0000   204.0000 </r>
       <r>   -14.5119     0.0000   204.0000 </r>
       <r>   -14.3950     0.0000   204.0000 </r>
       <r>   -14.2781     0.0000   204.0000 </r>
       <r>   -14.1613     0.0000   204.0000 </r>
       <r>   -14.0444     6.2923   204.7354 </r>
       <r>   -13.9275     7.5221   210.0125 </r>
       <r>   -13.8106    43.1205   219.0398 </r>
       <r>   -13.6937    49.2193   227.7526 </r>
       <r>   -13.5769    34.2285   232.0005 </r>
       <r>   -13.4600     0.0007   234.0001 </r>
       <r>   -13.3431    17.1121   240.0000 </r>
       <r>   -13.2262    49.4955   245.7849 </r>
       <r>   -13.1094    45.9274   251.3678 </r>
       <r>   -12.9925     0.0001   252.0000 </r>
       <r>   -12.8756    57.8593   262.7624 </r>
       <r>   -12.7587    51.3294   269.9992 </r>
       <r>   -12.6419     0.0000   270.0000 </r>
       <r>   -12.5250    37.2924   274.3586 </r>
       <r>   -12.4081    51.3362   282.0000 </r>
       <r>   -12.2912    45.7060   287.3420 </r>
       <r>   -12.1743    30.5196   294.0004 </r>
       <r>   -12.0575    17.1122   300.0000 </r>
       <r>   -11.9406    55.8078   309.2893 </r>
       <r>   -11.8237    39.9441   314.6685 </r>
       <r>   -11.7068    52.4715   322.3994 </r>
       <r>   -11.5900    36.7949   328.0005 </r>
       <r>   -11.4731    29.9195   331.9969 </r>
       <r>   -11.3562    30.9826   335.6211 </r>
       <r>   -11.2393    18.4853   339.0605 </r>
       <r>   -11.1225    34.2241   344.0000 </r>
       <r>   -11.0056    51.3202   349.9981 </r>
       <r>   -10.8887    34.1772   353.9945 </r>
       <r>   -10.7718     0.0000   354.0000 </r>
       <r>   -10.6550     0.0000   354.0000 </r>
       <r>   -10.5381    15.5428   356.1833 </r>
       <r>   -10.4212    23.3865   360.0000 </r>
       <r>   -10.3043    51.3327   365.9996 </r>
       <r>   -10.1874    51.3362   372.0000 </r>
       <r>   -10.0706     0.0672   372.0078 </r>
       <r>    -9.9537     9.8086   377.1464 </r>
       <r>    -9.8368     0.0000   378.0000 </r>
       <r>    -9.7199    24.4888   380.8622 </r>
       <r>    -9.6031    12.2349   383.0633 </r>
       <r>    -9.4862     4.2780   384.0000 </r>
       <r>    -9.3693    15.2955   385.7877 </r>
       <r>    -9.2524    34.6027   394.0442 </r>
       <r>    -9.1356    51.1531   401.9786 </r>
       <r>    -9.0187    39.1879   410.5801 </r>
       <r>    -8.9018    18.3942   413.9498 </r>
       <r>    -8.7849    42.7136   418.9922 </r>
       <r>    -8.6681    17.1130   422.0001 </r>
       <r>    -8.5512     0.0000   426.0000 </r>
       <r>    -8.4343     0.0000   426.0000 </r>
       <r>    -8.3174    50.9304   431.9526 </r>
       <r>    -8.2005     0.0000   432.0000 </r>
       <r>    -8.0837    17.1267   434.0017 </r>
       <r>    -7.9668    18.0314   440.1074 </r>
       <r>    -7.8499    17.7808   446.0782 </r>
       <r>    -7.7330    17.0529   451.9931 </r>
       <r>    -7.6162    68.4312   459.9980 </r>
       <r>    -7.4993    16.9943   463.9862 </r>
       <r>    -7.3824   101.7277   477.8896 </r>
       <r>    -7.2655    64.0613   487.7206 </r>
       <r>    -7.1487    51.2592   493.9910 </r>
       <r>    -7.0318    69.9552   502.1761 </r>
       <r>    -6.9149     0.0000   504.0000 </r>
       <r>    -6.7980    51.3362   510.0000 </r>
       <r>    -6.6812    34.2239   514.0000 </r>
       <r>    -6.5643    51.3346   519.9998 </r>
       <r>    -6.4474    72.8735   528.5172 </r>
       <r>    -6.3305    84.7239   543.9022 </r>
       <r>    -6.2136    51.3358   550.0000 </r>
       <r>    -6.0968    17.0518   551.9930 </r>
       <r>    -5.9799    39.9282   558.0000 </r>
       <r>    -5.8630     0.0000   558.0000 </r>
       <r>    -5.7461     0.0000   558.0000 </r>
       <r>    -5.6293     0.0000   558.0000 </r>
       <r>    -5.5124     0.0000   558.0000 </r>
       <r>    -5.3955     0.0000   558.0000 </r>
       <r>    -5.2786     0.0000   558.0000 </r>
       <r>    -5.1618     0.0000   558.0000 </r>
       <r>    -5.0449     0.0000   558.0000 </r>
       <r>    -4.9280     0.0000   558.0000 </r>
       <r>    -4.8111     0.0000   558.0000 </r>
       <r>    -4.6943     0.0000   558.0000 </r>
       <r>    -4.5774     0.0000   558.0000 </r>
       <r>    -4.4605     0.0000   558.0000 </r>
       <r>    -4.3436     0.0000   558.0000 </r>
       <r>    -4.2267     0.0000   558.0000 </r>
       <r>    -4.1099     0.0000   558.0000 </r>
       <r>    -3.9930     0.0000   558.0000 </r>
       <r>    -3.8761     0.0000   558.0000 </r>
       <r>    -3.7592     0.0000   558.0000 </r>
       <r>    -3.6424     0.0000   558.0000 </r>
       <r>    -3.5255    68.3048   565.9832 </r>
       <r>    -3.4086    35.9004   574.1959 </r>
       <r>    -3.2917    50.2702   581.8754 </r>
       <r>    -3.1749     0.0000   582.0000 </r>
       <r>    -3.0580    34.2241   586.0000 </r>
       <r>    -2.9411    51.3335   591.9997 </r>
       <r>    -2.8242    17.1120   594.0000 </r>
       <r>    -2.7073     0.0000   594.0000 </r>
       <r>    -2.5905     0.0000   594.0000 </r>
       <r>    -2.4736     0.0000   594.0000 </r>
       <r>    -2.3567    32.2890   597.7738 </r>
       <r>    -2.2398     0.0000   600.0000 </r>
       <r>    -2.1230     0.0056   600.0007 </r>
       <r>    -2.0061    17.1121   606.0000 </r>
       <r>    -1.8892    50.9958   611.9602 </r>
       <r>    -1.7723    39.5960   616.6278 </r>
       <r>    -1.6555    25.6780   620.0012 </r>
       <r>    -1.5386     8.8367   621.9995 </r>
       <r>    -1.4217     0.0000   622.0000 </r>
       <r>    -1.3048     0.0000   622.0000 </r>
       <r>    -1.1880     0.4437   622.0519 </r>
       <r>    -1.0711    11.6932   626.0000 </r>
       <r>    -0.9542    34.2109   629.9985 </r>
       <r>    -0.8373     0.0000   630.0000 </r>
       <r>    -0.7204     5.4918   630.6419 </r>
       <r>    -0.6036    34.2234   635.9999 </r>
       <r>    -0.4867     0.0000   636.0000 </r>
       <r>    -0.3698    17.1121   638.0000 </r>
       <r>    -0.2529    36.8439   642.3062 </r>
       <r>    -0.1361    11.0017   644.4525 </r>
       <r>    -0.0192    13.7018   646.9014 </r>
       <r>     0.0977    11.9379   650.1953 </r>
       <r>     0.2146    30.0262   655.3427 </r>
       <r>     0.3314    30.9167   659.6134 </r>
       <r>     0.4483    40.3398   665.1814 </r>
       <r>     0.5652    75.0502   675.7716 </r>
       <r>     0.6821    44.6442   683.8512 </r>
       <r>     0.7989    69.1763   694.0851 </r>
       <r>     0.9158    43.3039   701.9612 </r>
       <r>     1.0327     6.5596   704.0000 </r>
       <r>     1.1496     0.0000   704.0000 </r>
       <r>     1.2665     0.0000   704.0000 </r>
       <r>     1.3833     0.0000   704.0000 </r>
       <r>     1.5002     0.0000   704.0000 </r>
       <r>     1.6171     0.0000   704.0000 </r>
       <r>     1.7340     0.0000   704.0000 </r>
       <r>     1.8508     0.0000   704.0000 </r>
       <r>     1.9677     0.0000   704.0000 </r>
       <r>     2.0846     0.0000   704.0000 </r>
       <r>     2.2015     0.0000   704.0000 </r>
       <r>     2.3183     0.0000   704.0000 </r>
       <r>     2.4352     0.0000   704.0000 </r>
       <r>     2.5521     0.0000   704.0000 </r>
      </set>
     </set>
    </array>
   </total>
  </dos>
 </calculation>
 <structure name="finalpos" >
  <crystal>
   <varray name="basis" >
    <v>      29.49021797      -0.01980232       0.00000000 </v>
    <v>     -14.76226884      25.61905073       0.00000000 </v>
    <v>       0.00000000       0.00000000      20.00000000 </v>
   </varray>
   <i name="volume">  15104.38125983 </i>
   <varray name="rec_basis" >
    <v>       0.03392267       0.01954700       0.00000000 </v>
    <v>       0.00002622       0.03904856       0.00000000 </v>
    <v>       0.00000000       0.00000000       0.05000000 </v>
   </varray>
  </crystal>
  <varray name="positions" >
   <v>       0.03977049       0.62297422       0.41910204 </v>
   <v>       0.08771699       0.60136801       0.35637884 </v>
   <v>       0.19313219       0.66034755       0.66629510 </v>
   <v>       0.27515510       0.69622577       0.70065966 </v>
   <v>       0.43947936       0.74091074       0.69782036 </v>
   <v>       0.48865262       0.82302529       0.66594198 </v>
   <v>       0.32402704       0.58016552       0.69955717 </v>
   <v>       0.35804709       0.53180194       0.66796665 </v>
   <v>       0.74469736       0.31132767       0.70005626 </v>
   <v>       0.82582307       0.33559561       0.66982453 </v>
   <v>       0.58598052       0.27167604       0.69992132 </v>
   <v>       0.53004574       0.19095212       0.66808542 </v>
   <v>       0.70678582       0.42906471       0.69957436 </v>
   <v>       0.68154768       0.48486982       0.66863560 </v>
   <v>       0.60444629       0.97675541       0.41961227 </v>
   <v>       0.53460739       0.93042708       0.35663409 </v>
   <v>       0.39340939       0.41206179       0.42273652 </v>
   <v>       0.41460978       0.48078150       0.35878712 </v>
   <v>       0.13202432       0.48703921       0.47854987 </v>
   <v>       0.12578554       0.63015414       0.48506335 </v>
   <v>       0.21952537       0.48173774       0.44417285 </v>
   <v>       0.26031271       0.62711994       0.56098688 </v>
   <v>       0.37665494       0.88629055       0.48041972 </v>
   <v>       0.52586522       0.89134947       0.48552808 </v>
   <v>       0.38766954       0.75666318       0.55918181 </v>
   <v>       0.53141909       0.64048983       0.47763705 </v>
   <v>       0.38749136       0.49165453       0.48729083 </v>
   <v>       0.39169791       0.63019990       0.55988299 </v>
   <v>       0.90251702       0.51183366       0.48287754 </v>
   <v>       0.89276009       0.36095027       0.48492419 </v>
   <v>       0.76614424       0.37739398       0.56295654 </v>
   <v>       0.63189493       0.11493074       0.48538543 </v>
   <v>       0.49068326       0.12520150       0.48428354 </v>
   <v>       0.63351231       0.25184956       0.56232569 </v>
   <v>       0.50459565       0.38551265       0.48333859 </v>
   <v>       0.65630229       0.52609716       0.48447858 </v>
   <v>       0.63929898       0.38313920       0.56236003 </v>
   <v>       0.97533526       0.40136860       0.48004472 </v>
   <v>       0.44883480       0.04288123       0.48620443 </v>
   <v>       0.61644823       0.56856702       0.47978846 </v>
   <v>       0.28412985       0.79770744       0.44201619 </v>
   <v>       0.53576364       0.73344223       0.44099202 </v>
   <v>       0.72875242       0.19970234       0.44672303 </v>
   <v>       0.49338768       0.28893500       0.44425969 </v>
   <v>       0.81714273       0.52301223       0.44463120 </v>
   <v>       0.12272275       0.55485897       0.47958771 </v>
   <v>       0.06725371       0.52358293       0.46006497 </v>
   <v>       0.03425173       0.54216825       0.43658439 </v>
   <v>       0.19592410       0.63470826       0.52274126 </v>
   <v>       0.22164465       0.60705463       0.53784693 </v>
   <v>       0.20008254       0.55433117       0.52055765 </v>
   <v>       0.15068305       0.52839528       0.49093500 </v>
   <v>       0.14618348       0.60851743       0.49369537 </v>
   <v>       0.22696807       0.69158304       0.53429365 </v>
   <v>       0.23454606       0.53212388       0.53234379 </v>
   <v>       0.25850408       0.71306270       0.59176193 </v>
   <v>       0.24633892       0.50400968       0.48461304 </v>
   <v>       0.45996808       0.82110069       0.52190888 </v>
   <v>       0.40646620       0.79553195       0.53685482 </v>
   <v>       0.37549625       0.81760875       0.52046749 </v>
   <v>       0.39924606       0.86730125       0.49201157 </v>
   <v>       0.45375729       0.89504083       0.48085368 </v>
   <v>       0.48375794       0.87110659       0.49395829 </v>
   <v>       0.38350059       0.55774291       0.52335052 </v>
   <v>       0.41154802       0.61122603       0.53728265 </v>
   <v>       0.46436981       0.64198983       0.51954956 </v>
   <v>       0.49001426       0.61806942       0.49046489 </v>
   <v>       0.46315921       0.56357047       0.48019523 </v>
   <v>       0.40942314       0.53373755       0.49494593 </v>
   <v>       0.82644570       0.36309371       0.52504541 </v>
   <v>       0.80490062       0.39460673       0.54024881 </v>
   <v>       0.83070462       0.44770911       0.52334211 </v>
   <v>       0.88053342       0.47029944       0.49480492 </v>
   <v>       0.90431439       0.43980505       0.48362650 </v>
   <v>       0.87621281       0.38577170       0.49628247 </v>
   <v>       0.55900533       0.19150344       0.52437745 </v>
   <v>       0.61207677       0.21303821       0.54003022 </v>
   <v>       0.63949535       0.18706595       0.52416409 </v>
   <v>       0.61229991       0.13708993       0.49634587 </v>
   <v>       0.55800624       0.11341673       0.48478998 </v>
   <v>       0.53202483       0.14169123       0.49618674 </v>
   <v>       0.65386800       0.45765563       0.52443383 </v>
   <v>       0.62212725       0.40471947       0.53981090 </v>
   <v>       0.56880771       0.37759521       0.52324580 </v>
   <v>       0.54628378       0.40492712       0.49497860 </v>
   <v>       0.57708074       0.45910844       0.48370334 </v>
   <v>       0.63128019       0.48481745       0.49591841 </v>
   <v>       0.99178101       0.44317480       0.47186504 </v>
   <v>       0.47385679       0.02622810       0.47614276 </v>
   <v>       0.57445347       0.54341560       0.47196035 </v>
   <v>       0.31864137       0.78343733       0.53180091 </v>
   <v>       0.48582215       0.78992953       0.53304165 </v>
   <v>       0.48678170       0.69871402       0.53054261 </v>
   <v>       0.47555408       0.75826708       0.59034624 </v>
   <v>       0.32655811       0.53231348       0.53533676 </v>
   <v>       0.30555292       0.54367357       0.59224686 </v>
   <v>       0.79157275       0.30666221       0.53664475 </v>
   <v>       0.69670321       0.21818009       0.53548745 </v>
   <v>       0.75949746       0.28767057       0.59410671 </v>
   <v>       0.53704210       0.22613808       0.53528642 </v>
   <v>       0.54265279       0.32048285       0.53417329 </v>
   <v>       0.54904917       0.25767575       0.59302931 </v>
   <v>       0.71046635       0.47926376       0.53559403 </v>
   <v>       0.79941872       0.47359296       0.53428257 </v>
   <v>       0.72986297       0.46681250       0.59313901 </v>
   <v>       0.95995284       0.46609488       0.46400366 </v>
   <v>       0.47820544       0.95065933       0.46252737 </v>
   <v>       0.52845223       0.05771868       0.46624711 </v>
   <v>       0.52960788       0.98332309       0.43823462 </v>
   <v>       0.49407524       0.53895577       0.46088643 </v>
   <v>       0.55103927       0.48867965       0.46443979 </v>
   <v>       0.47485936       0.48720742       0.43801511 </v>
   <v>       0.27923826       0.77127213       0.48304899 </v>
   <v>       0.51396924       0.73813264       0.48195480 </v>
   <v>       0.73546362       0.22728869       0.48702349 </v>
   <v>       0.51386083       0.28209880       0.48504715 </v>
   <v>       0.78980616       0.50250328       0.48537436 </v>
   <v>       0.04350607       0.47199271       0.47268150 </v>
   <v>       0.05553177       0.59325923       0.40119587 </v>
   <v>       0.24125186       0.68790101       0.65885441 </v>
   <v>       0.26293767       0.54707636       0.58867135 </v>
   <v>       0.23596861       0.72456681       0.48340235 </v>
   <v>       0.45072437       0.97461661       0.47692800 </v>
   <v>       0.54593309       0.56660514       0.47289238 </v>
   <v>       0.30453156       0.75560320       0.58850490 </v>
   <v>       0.47250651       0.71251082       0.58712724 </v>
   <v>       0.46685817       0.77505797       0.65728591 </v>
   <v>       0.33124519       0.55299656       0.65917161 </v>
   <v>       0.71218367       0.24694774       0.59148061 </v>
   <v>       0.77777861       0.31362765       0.66057324 </v>
   <v>       0.55524915       0.30476973       0.59054915 </v>
   <v>       0.55593002       0.23896927       0.65962348 </v>
   <v>       0.77087629       0.46065489       0.59049671 </v>
   <v>       0.70398503       0.45926811       0.65971949 </v>
   <v>       0.98295027       0.51566237       0.44209140 </v>
   <v>       0.55467390       0.03451868       0.44347899 </v>
   <v>       0.55900308       0.96183010       0.40196517 </v>
   <v>       0.50117337       0.46224866       0.44323148 </v>
   <v>       0.42314024       0.45719929       0.40377363 </v>
   <v>       0.51021722       0.78121290       0.48230756 </v>
   <v>       0.29310728       0.50737016       0.48510857 </v>
   <v>       0.78055797       0.27252071       0.48659706 </v>
   <v>       0.51436968       0.23724401       0.48469537 </v>
   <v>       0.74435082       0.50203657       0.48509813 </v>
  </varray>
 </structure>
</modeling>
