<?xml version="1.0" encoding="ISO-8859-1"?>
<modeling>
 <generator>
  <i name="program" type="string">vasp </i>
  <i name="version" type="string">5.4.4.18Apr17-6-g9f103f2a35  </i>
  <i name="subversion" type="string">(build Jun 07 2020 16:50:00) complex            parallel </i>
  <i name="platform" type="string">LinuxIFC </i>
  <i name="date" type="string">2023 02 03 </i>
  <i name="time" type="string">00:48:40 </i>
 </generator>
 <incar>
  <i type="string" name="SYSTEM">Simulation for cell shape cell volume r</i>
  <i type="int" name="ISTART">     1</i>
  <i type="string" name="PREC">high</i>
  <i type="string" name="ALGO">48</i>
  <i type="int" name="ICHARG">    11</i>
  <i type="int" name="NELM">   200</i>
  <i type="int" name="IBRION">    -1</i>
  <i name="EDIFF">      0.00001000</i>
  <i name="EDIFFG">     -0.01000000</i>
  <i type="int" name="NSW">     0</i>
  <i type="int" name="ISIF">     2</i>
  <i name="ENCUT">    500.00000000</i>
  <i name="POTIM">      0.30000000</i>
  <i type="string" name="LREAL">A</i>
  <i type="int" name="ISMEAR">     0</i>
  <i name="SIGMA">      0.01000000</i>
  <i type="int" name="NWRITE">     0</i>
  <i type="logical" name="LWAVE"> T  </i>
  <i type="logical" name="LCHARG"> T  </i>
  <v type="int" name="KPOINT_BSE">    -1     0     0     0</v>
  <i type="int" name="NELM">   200</i>
  <i type="string" name="GGA">PE</i>
 </incar>
 <structure name="primitive_cell" >
  <crystal>
   <varray name="basis" >
    <v>      29.34980957       0.07052449       0.00000000 </v>
    <v>     -14.61405634      25.52956080       0.00000000 </v>
    <v>       0.00000000       0.00000000      20.00000000 </v>
   </varray>
   <i name="volume">  15006.36793326 </i>
   <varray name="rec_basis" >
    <v>       0.03402497       0.01947714       0.00000000 </v>
    <v>      -0.00009399       0.03911647       0.00000000 </v>
    <v>       0.00000000       0.00000000       0.05000000 </v>
   </varray>
  </crystal>
  <varray name="positions" >
   <v>       0.30183320      -0.38600890       0.49063334 </v>
   <v>       0.35448710      -0.36173942       0.49054735 </v>
   <v>       0.28163937      -0.35363401       0.49195943 </v>
   <v>       0.37662455      -0.39716482       0.49005350 </v>
   <v>       0.30970682      -0.30110279       0.49247554 </v>
   <v>       0.38674754      -0.30950656       0.49062881 </v>
   <v>       0.22423252      -0.37560966       0.49246256 </v>
   <v>       0.34730118      -0.43854486       0.48115526 </v>
   <v>       0.36210148      -0.28126778       0.49192537 </v>
   <v>       0.19278841      -0.42454729      -0.49819207 </v>
   <v>       0.21171384      -0.34629874       0.48444579 </v>
   <v>       0.42555788      -0.38040310       0.49988384 </v>
   <v>       0.39725877      -0.22406261       0.49223980 </v>
   <v>       0.13856163      -0.44413429      -0.49497314 </v>
   <v>       0.37517686      -0.48239348      -0.45530218 </v>
   <v>       0.44455435      -0.41567553      -0.49713381 </v>
   <v>       0.12629854       0.48154992       0.47112823 </v>
   <v>       0.43878082      -0.21202713       0.48302369 </v>
   <v>       0.10696065      -0.49666421       0.48684816 </v>
   <v>       0.38015930      -0.19211493      -0.49732704 </v>
   <v>       0.41495213      -0.46761410      -0.47386965 </v>
   <v>       0.13876382      -0.37487694      -0.45587861 </v>
   <v>       0.11489673      -0.41500580      -0.47330745 </v>
   <v>       0.49670042      -0.39648979       0.48308729 </v>
   <v>      -0.48111116      -0.35597410       0.46611830 </v>
   <v>       0.41526470      -0.13821382      -0.49437656 </v>
   <v>       0.05201427       0.47930164       0.48715037 </v>
   <v>       0.43808651      -0.49897133      -0.47227155 </v>
   <v>       0.06052437      -0.43898169      -0.47192137 </v>
   <v>       0.48282403      -0.14089516      -0.45401378 </v>
   <v>       0.41589297       0.46104181      -0.45341865 </v>
   <v>       0.46759148      -0.11606759      -0.47209723 </v>
   <v>       0.02808458      -0.49133141      -0.49124318 </v>
   <v>       0.35467823      -0.12367501       0.47044741 </v>
   <v>      -0.48021339      -0.42844555       0.48343700 </v>
   <v>       0.03919480       0.41192374       0.43987492 </v>
   <v>       0.02191948       0.42753077       0.46841484 </v>
   <v>       0.39551219      -0.10546547       0.48654573 </v>
   <v>       0.04170906      -0.41709221      -0.45454333 </v>
   <v>       0.48997048      -0.48084847      -0.49311216 </v>
   <v>      -0.00078964       0.44596923      -0.39372476 </v>
   <v>      -0.01646311       0.41431585       0.45828789 </v>
   <v>      -0.42883336      -0.40869247       0.46315014 </v>
   <v>      -0.41308773      -0.37651288       0.43369259 </v>
   <v>       0.49882604      -0.06194470      -0.47101272 </v>
   <v>      -0.02973857       0.48552338      -0.49070397 </v>
   <v>       0.42731321      -0.05079136       0.48640590 </v>
   <v>      -0.44812604      -0.44780872      -0.39539939 </v>
   <v>       0.46028554       0.43305894       0.43253908 </v>
   <v>      -0.48745226       0.48380589      -0.49180389 </v>
   <v>      -0.02859282      -0.46235973       0.43335618 </v>
   <v>      -0.03995732       0.42446211      -0.40178445 </v>
   <v>      -0.46082897      -0.04427343      -0.45308843 </v>
   <v>      -0.41670815      -0.43481462       0.45311390 </v>
   <v>       0.48016995      -0.02840485      -0.49138236 </v>
   <v>       0.49218728       0.43970051       0.46636335 </v>
   <v>      -0.05365489      -0.49421405       0.46705921 </v>
   <v>      -0.06188749       0.44449911      -0.44575335 </v>
   <v>       0.37441364      -0.03576192       0.43789769 </v>
   <v>      -0.42657238      -0.46567858      -0.40290017 </v>
   <v>       0.40700450      -0.01935474       0.46674736 </v>
   <v>      -0.44653068       0.49237544      -0.44645970 </v>
   <v>      -0.06142307       0.40471716      -0.36140894 </v>
   <v>       0.44886922       0.00127069      -0.39242550 </v>
   <v>      -0.40664396      -0.46712249      -0.36242154 </v>
   <v>       0.43292979       0.01857002       0.45622896 </v>
   <v>      -0.48449906       0.02910245      -0.49103782 </v>
   <v>      -0.48870257       0.40488214       0.46701204 </v>
   <v>      -0.10746150       0.48661762       0.46707769 </v>
   <v>      -0.11645641       0.42394997      -0.44738888 </v>
   <v>      -0.43498982       0.02664117       0.43174881 </v>
   <v>      -0.42604339       0.45816022      -0.44744456 </v>
   <v>       0.49522088       0.37064650       0.43461692 </v>
   <v>       0.46657141       0.04038345      -0.40041114 </v>
   <v>      -0.44107355       0.05213961       0.46582828 </v>
   <v>      -0.12569634      -0.49742167       0.43426164 </v>
   <v>      -0.13946106       0.44425159      -0.49092008 </v>
   <v>      -0.14119403       0.39298989      -0.41236780 </v>
   <v>      -0.44631984       0.41499448      -0.49078581 </v>
   <v>      -0.49235364       0.06172962      -0.44538207 </v>
   <v>      -0.39509464       0.46422853      -0.41220968 </v>
   <v>       0.46853094       0.06207228      -0.36012125 </v>
   <v>      -0.40626269       0.10567576       0.46548846 </v>
   <v>      -0.19355972       0.42510901      -0.49312993 </v>
   <v>      -0.42709782       0.37996089      -0.49290024 </v>
   <v>      -0.45827936       0.11604179      -0.44744298 </v>
   <v>      -0.21252067       0.34627102      -0.48467594 </v>
   <v>      -0.37257224       0.12326312       0.43206386 </v>
   <v>      -0.41579468       0.13822388      -0.49201778 </v>
   <v>      -0.22520958       0.37582823      -0.48741054 </v>
   <v>      -0.34816529       0.43900695      -0.48299872 </v>
   <v>      -0.46374945       0.14118684      -0.41200090 </v>
   <v>      -0.37774962       0.39712884      -0.48654647 </v>
   <v>      -0.38084433       0.19205729      -0.49469417 </v>
   <v>      -0.28261227       0.35372269      -0.48663331 </v>
   <v>      -0.35543323       0.36186683      -0.48619733 </v>
   <v>      -0.44021456       0.21205354      -0.48489034 </v>
   <v>      -0.30277500       0.38610757      -0.48547084 </v>
   <v>      -0.39818736       0.22418587      -0.48839531 </v>
   <v>      -0.38761605       0.30966077      -0.48684305 </v>
   <v>      -0.31064416       0.30117974      -0.48728525 </v>
   <v>      -0.36302758       0.28138237      -0.48749495 </v>
  </varray>
 </structure>
 <varray name="primitive_index" >
  <v type="int" >        1 </v>
  <v type="int" >       19 </v>
  <v type="int" >       20 </v>
  <v type="int" >       23 </v>
  <v type="int" >        2 </v>
  <v type="int" >        3 </v>
  <v type="int" >       24 </v>
  <v type="int" >       68 </v>
  <v type="int" >       21 </v>
  <v type="int" >       18 </v>
  <v type="int" >       67 </v>
  <v type="int" >       16 </v>
  <v type="int" >       22 </v>
  <v type="int" >       64 </v>
  <v type="int" >       79 </v>
  <v type="int" >       59 </v>
  <v type="int" >      100 </v>
  <v type="int" >       69 </v>
  <v type="int" >       65 </v>
  <v type="int" >       14 </v>
  <v type="int" >       44 </v>
  <v type="int" >       84 </v>
  <v type="int" >       51 </v>
  <v type="int" >       60 </v>
  <v type="int" >       95 </v>
  <v type="int" >       54 </v>
  <v type="int" >       66 </v>
  <v type="int" >       43 </v>
  <v type="int" >       50 </v>
  <v type="int" >       74 </v>
  <v type="int" >       78 </v>
  <v type="int" >       37 </v>
  <v type="int" >       49 </v>
  <v type="int" >       90 </v>
  <v type="int" >       61 </v>
  <v type="int" >      102 </v>
  <v type="int" >       17 </v>
  <v type="int" >       55 </v>
  <v type="int" >       83 </v>
  <v type="int" >       42 </v>
  <v type="int" >       87 </v>
  <v type="int" >      101 </v>
  <v type="int" >       15 </v>
  <v type="int" >       97 </v>
  <v type="int" >       36 </v>
  <v type="int" >       48 </v>
  <v type="int" >       56 </v>
  <v type="int" >       82 </v>
  <v type="int" >       93 </v>
  <v type="int" >       41 </v>
  <v type="int" >       98 </v>
  <v type="int" >       11 </v>
  <v type="int" >       73 </v>
  <v type="int" >       96 </v>
  <v type="int" >       35 </v>
  <v type="int" >       57 </v>
  <v type="int" >       62 </v>
  <v type="int" >       47 </v>
  <v type="int" >       92 </v>
  <v type="int" >        9 </v>
  <v type="int" >       13 </v>
  <v type="int" >       40 </v>
  <v type="int" >       86 </v>
  <v type="int" >       77 </v>
  <v type="int" >       81 </v>
  <v type="int" >       91 </v>
  <v type="int" >       34 </v>
  <v type="int" >       58 </v>
  <v type="int" >       63 </v>
  <v type="int" >       46 </v>
  <v type="int" >       88 </v>
  <v type="int" >       39 </v>
  <v type="int" >       94 </v>
  <v type="int" >        7 </v>
  <v type="int" >       52 </v>
  <v type="int" >       99 </v>
  <v type="int" >       45 </v>
  <v type="int" >       85 </v>
  <v type="int" >       38 </v>
  <v type="int" >       33 </v>
  <v type="int" >       80 </v>
  <v type="int" >       76 </v>
  <v type="int" >       53 </v>
  <v type="int" >       12 </v>
  <v type="int" >       10 </v>
  <v type="int" >       32 </v>
  <v type="int" >       70 </v>
  <v type="int" >       89 </v>
  <v type="int" >       31 </v>
  <v type="int" >       30 </v>
  <v type="int" >       71 </v>
  <v type="int" >       75 </v>
  <v type="int" >       29 </v>
  <v type="int" >        8 </v>
  <v type="int" >       26 </v>
  <v type="int" >       25 </v>
  <v type="int" >       72 </v>
  <v type="int" >        4 </v>
  <v type="int" >       28 </v>
  <v type="int" >        6 </v>
  <v type="int" >        5 </v>
  <v type="int" >       27 </v>
 </varray>
 <kpoints>
  <generation param="listgenerated">
   <i name="divisions" type="int">      20 </i>
   <v>       0.00000000       0.00000000       0.00000000 </v>
   <v>       0.50000000      -0.50000000       0.00000000 </v>
   <v>       0.66474598      -0.33376973       0.00000000 </v>
   <v>       0.50000000       0.00000000       0.00000000 </v>
   <v>       0.33525402       0.33376973       0.00000000 </v>
   <v>       0.00000000       0.50000000       0.00000000 </v>
   <v>       0.00000000       0.00000000       0.00000000 </v>
  </generation>
  <varray name="kpointlist" >
   <v>       0.00000000       0.00000000       0.00000000 </v>
   <v>       0.02631579      -0.02631579       0.00000000 </v>
   <v>       0.05263158      -0.05263158       0.00000000 </v>
   <v>       0.07894737      -0.07894737       0.00000000 </v>
   <v>       0.10526316      -0.10526316       0.00000000 </v>
   <v>       0.13157895      -0.13157895       0.00000000 </v>
   <v>       0.15789474      -0.15789474       0.00000000 </v>
   <v>       0.18421053      -0.18421053       0.00000000 </v>
   <v>       0.21052632      -0.21052632       0.00000000 </v>
   <v>       0.23684211      -0.23684211       0.00000000 </v>
   <v>       0.26315789      -0.26315789       0.00000000 </v>
   <v>       0.28947368      -0.28947368       0.00000000 </v>
   <v>       0.31578947      -0.31578947       0.00000000 </v>
   <v>       0.34210526      -0.34210526       0.00000000 </v>
   <v>       0.36842105      -0.36842105       0.00000000 </v>
   <v>       0.39473684      -0.39473684       0.00000000 </v>
   <v>       0.42105263      -0.42105263       0.00000000 </v>
   <v>       0.44736842      -0.44736842       0.00000000 </v>
   <v>       0.47368421      -0.47368421       0.00000000 </v>
   <v>       0.50000000      -0.50000000       0.00000000 </v>
   <v>       0.50000000      -0.50000000       0.00000000 </v>
   <v>       0.50867084      -0.49125104       0.00000000 </v>
   <v>       0.51734168      -0.48250208       0.00000000 </v>
   <v>       0.52601252      -0.47375312       0.00000000 </v>
   <v>       0.53468336      -0.46500415       0.00000000 </v>
   <v>       0.54335421      -0.45625519       0.00000000 </v>
   <v>       0.55202505      -0.44750623       0.00000000 </v>
   <v>       0.56069589      -0.43875727       0.00000000 </v>
   <v>       0.56936673      -0.43000831       0.00000000 </v>
   <v>       0.57803757      -0.42125935       0.00000000 </v>
   <v>       0.58670841      -0.41251038       0.00000000 </v>
   <v>       0.59537925      -0.40376142       0.00000000 </v>
   <v>       0.60405009      -0.39501246       0.00000000 </v>
   <v>       0.61272094      -0.38626350       0.00000000 </v>
   <v>       0.62139178      -0.37751454       0.00000000 </v>
   <v>       0.63006262      -0.36876558       0.00000000 </v>
   <v>       0.63873346      -0.36001661       0.00000000 </v>
   <v>       0.64740430      -0.35126765       0.00000000 </v>
   <v>       0.65607514      -0.34251869       0.00000000 </v>
   <v>       0.66474598      -0.33376973       0.00000000 </v>
   <v>       0.66474598      -0.33376973       0.00000000 </v>
   <v>       0.65607514      -0.31620290       0.00000000 </v>
   <v>       0.64740430      -0.29863607       0.00000000 </v>
   <v>       0.63873346      -0.28106925       0.00000000 </v>
   <v>       0.63006262      -0.26350242       0.00000000 </v>
   <v>       0.62139178      -0.24593559       0.00000000 </v>
   <v>       0.61272094      -0.22836876       0.00000000 </v>
   <v>       0.60405009      -0.21080193       0.00000000 </v>
   <v>       0.59537925      -0.19323511       0.00000000 </v>
   <v>       0.58670841      -0.17566828       0.00000000 </v>
   <v>       0.57803757      -0.15810145       0.00000000 </v>
   <v>       0.56936673      -0.14053462       0.00000000 </v>
   <v>       0.56069589      -0.12296779       0.00000000 </v>
   <v>       0.55202505      -0.10540097       0.00000000 </v>
   <v>       0.54335421      -0.08783414       0.00000000 </v>
   <v>       0.53468336      -0.07026731       0.00000000 </v>
   <v>       0.52601252      -0.05270048       0.00000000 </v>
   <v>       0.51734168      -0.03513366       0.00000000 </v>
   <v>       0.50867084      -0.01756683       0.00000000 </v>
   <v>       0.50000000       0.00000000       0.00000000 </v>
   <v>       0.50000000       0.00000000       0.00000000 </v>
   <v>       0.49132916       0.01756683       0.00000000 </v>
   <v>       0.48265832       0.03513366       0.00000000 </v>
   <v>       0.47398748       0.05270048       0.00000000 </v>
   <v>       0.46531664       0.07026731       0.00000000 </v>
   <v>       0.45664579       0.08783414       0.00000000 </v>
   <v>       0.44797495       0.10540097       0.00000000 </v>
   <v>       0.43930411       0.12296779       0.00000000 </v>
   <v>       0.43063327       0.14053462       0.00000000 </v>
   <v>       0.42196243       0.15810145       0.00000000 </v>
   <v>       0.41329159       0.17566828       0.00000000 </v>
   <v>       0.40462075       0.19323511       0.00000000 </v>
   <v>       0.39594991       0.21080193       0.00000000 </v>
   <v>       0.38727906       0.22836876       0.00000000 </v>
   <v>       0.37860822       0.24593559       0.00000000 </v>
   <v>       0.36993738       0.26350242       0.00000000 </v>
   <v>       0.36126654       0.28106925       0.00000000 </v>
   <v>       0.35259570       0.29863607       0.00000000 </v>
   <v>       0.34392486       0.31620290       0.00000000 </v>
   <v>       0.33525402       0.33376973       0.00000000 </v>
   <v>       0.33525402       0.33376973       0.00000000 </v>
   <v>       0.31760907       0.34251869       0.00000000 </v>
   <v>       0.29996412       0.35126765       0.00000000 </v>
   <v>       0.28231917       0.36001661       0.00000000 </v>
   <v>       0.26467422       0.36876558       0.00000000 </v>
   <v>       0.24702928       0.37751454       0.00000000 </v>
   <v>       0.22938433       0.38626350       0.00000000 </v>
   <v>       0.21173938       0.39501246       0.00000000 </v>
   <v>       0.19409443       0.40376142       0.00000000 </v>
   <v>       0.17644948       0.41251038       0.00000000 </v>
   <v>       0.15880453       0.42125935       0.00000000 </v>
   <v>       0.14115959       0.43000831       0.00000000 </v>
   <v>       0.12351464       0.43875727       0.00000000 </v>
   <v>       0.10586969       0.44750623       0.00000000 </v>
   <v>       0.08822474       0.45625519       0.00000000 </v>
   <v>       0.07057979       0.46500415       0.00000000 </v>
   <v>       0.05293484       0.47375312       0.00000000 </v>
   <v>       0.03528990       0.48250208       0.00000000 </v>
   <v>       0.01764495       0.49125104       0.00000000 </v>
   <v>       0.00000000       0.50000000       0.00000000 </v>
   <v>       0.00000000       0.50000000       0.00000000 </v>
   <v>       0.00000000       0.47368421       0.00000000 </v>
   <v>       0.00000000       0.44736842       0.00000000 </v>
   <v>       0.00000000       0.42105263       0.00000000 </v>
   <v>       0.00000000       0.39473684       0.00000000 </v>
   <v>       0.00000000       0.36842105       0.00000000 </v>
   <v>       0.00000000       0.34210526       0.00000000 </v>
   <v>       0.00000000       0.31578947       0.00000000 </v>
   <v>       0.00000000       0.28947368       0.00000000 </v>
   <v>       0.00000000       0.26315789       0.00000000 </v>
   <v>       0.00000000       0.23684211       0.00000000 </v>
   <v>       0.00000000       0.21052632       0.00000000 </v>
   <v>       0.00000000       0.18421053       0.00000000 </v>
   <v>       0.00000000       0.15789474       0.00000000 </v>
   <v>       0.00000000       0.13157895       0.00000000 </v>
   <v>       0.00000000       0.10526316       0.00000000 </v>
   <v>       0.00000000       0.07894737       0.00000000 </v>
   <v>       0.00000000       0.05263158       0.00000000 </v>
   <v>       0.00000000       0.02631579       0.00000000 </v>
   <v>       0.00000000       0.00000000       0.00000000 </v>
  </varray>
  <varray name="weights" >
   <v>       0.00833333 </v>
   <v>       0.00833333 </v>
   <v>       0.00833333 </v>
   <v>       0.00833333 </v>
   <v>       0.00833333 </v>
   <v>       0.00833333 </v>
   <v>       0.00833333 </v>
   <v>       0.00833333 </v>
   <v>       0.00833333 </v>
   <v>       0.00833333 </v>
   <v>       0.00833333 </v>
   <v>       0.00833333 </v>
   <v>       0.00833333 </v>
   <v>       0.00833333 </v>
   <v>       0.00833333 </v>
   <v>       0.00833333 </v>
   <v>       0.00833333 </v>
   <v>       0.00833333 </v>
   <v>       0.00833333 </v>
   <v>       0.00833333 </v>
   <v>       0.00833333 </v>
   <v>       0.00833333 </v>
   <v>       0.00833333 </v>
   <v>       0.00833333 </v>
   <v>       0.00833333 </v>
   <v>       0.00833333 </v>
   <v>       0.00833333 </v>
   <v>       0.00833333 </v>
   <v>       0.00833333 </v>
   <v>       0.00833333 </v>
   <v>       0.00833333 </v>
   <v>       0.00833333 </v>
   <v>       0.00833333 </v>
   <v>       0.00833333 </v>
   <v>       0.00833333 </v>
   <v>       0.00833333 </v>
   <v>       0.00833333 </v>
   <v>       0.00833333 </v>
   <v>       0.00833333 </v>
   <v>       0.00833333 </v>
   <v>       0.00833333 </v>
   <v>       0.00833333 </v>
   <v>       0.00833333 </v>
   <v>       0.00833333 </v>
   <v>       0.00833333 </v>
   <v>       0.00833333 </v>
   <v>       0.00833333 </v>
   <v>       0.00833333 </v>
   <v>       0.00833333 </v>
   <v>       0.00833333 </v>
   <v>       0.00833333 </v>
   <v>       0.00833333 </v>
   <v>       0.00833333 </v>
   <v>       0.00833333 </v>
   <v>       0.00833333 </v>
   <v>       0.00833333 </v>
   <v>       0.00833333 </v>
   <v>       0.00833333 </v>
   <v>       0.00833333 </v>
   <v>       0.00833333 </v>
   <v>       0.00833333 </v>
   <v>       0.00833333 </v>
   <v>       0.00833333 </v>
   <v>       0.00833333 </v>
   <v>       0.00833333 </v>
   <v>       0.00833333 </v>
   <v>       0.00833333 </v>
   <v>       0.00833333 </v>
   <v>       0.00833333 </v>
   <v>       0.00833333 </v>
   <v>       0.00833333 </v>
   <v>       0.00833333 </v>
   <v>       0.00833333 </v>
   <v>       0.00833333 </v>
   <v>       0.00833333 </v>
   <v>       0.00833333 </v>
   <v>       0.00833333 </v>
   <v>       0.00833333 </v>
   <v>       0.00833333 </v>
   <v>       0.00833333 </v>
   <v>       0.00833333 </v>
   <v>       0.00833333 </v>
   <v>       0.00833333 </v>
   <v>       0.00833333 </v>
   <v>       0.00833333 </v>
   <v>       0.00833333 </v>
   <v>       0.00833333 </v>
   <v>       0.00833333 </v>
   <v>       0.00833333 </v>
   <v>       0.00833333 </v>
   <v>       0.00833333 </v>
   <v>       0.00833333 </v>
   <v>       0.00833333 </v>
   <v>       0.00833333 </v>
   <v>       0.00833333 </v>
   <v>       0.00833333 </v>
   <v>       0.00833333 </v>
   <v>       0.00833333 </v>
   <v>       0.00833333 </v>
   <v>       0.00833333 </v>
   <v>       0.00833333 </v>
   <v>       0.00833333 </v>
   <v>       0.00833333 </v>
   <v>       0.00833333 </v>
   <v>       0.00833333 </v>
   <v>       0.00833333 </v>
   <v>       0.00833333 </v>
   <v>       0.00833333 </v>
   <v>       0.00833333 </v>
   <v>       0.00833333 </v>
   <v>       0.00833333 </v>
   <v>       0.00833333 </v>
   <v>       0.00833333 </v>
   <v>       0.00833333 </v>
   <v>       0.00833333 </v>
   <v>       0.00833333 </v>
   <v>       0.00833333 </v>
   <v>       0.00833333 </v>
   <v>       0.00833333 </v>
   <v>       0.00833333 </v>
  </varray>
 </kpoints>
 <parameters>
  <separator name="general" >
   <i type="string" name="SYSTEM">Simulation for cell shape cell volume r</i>
   <i type="logical" name="LCOMPAT"> F  </i>
  </separator>
  <separator name="electronic" >
   <i type="string" name="PREC">high</i>
   <i name="ENMAX">    500.00000000</i>
   <i name="ENAUG">    644.87300000</i>
   <i name="EDIFF">      0.00001000</i>
   <i type="int" name="IALGO">    38</i>
   <i type="int" name="IWAVPR">    10</i>
   <i type="int" name="NBANDS">   224</i>
   <i name="NELECT">    318.00000000</i>
   <i type="int" name="TURBO">     0</i>
   <i type="int" name="IRESTART">     0</i>
   <i type="int" name="NREBOOT">     0</i>
   <i type="int" name="NMIN">     0</i>
   <i name="EREF">      0.00000000</i>
   <separator name="electronic smearing" >
    <i type="int" name="ISMEAR">     0</i>
    <i name="SIGMA">      0.01000000</i>
    <i name="KSPACING">      0.50000000</i>
    <i type="logical" name="KGAMMA"> T  </i>
   </separator>
   <separator name="electronic projectors" >
    <i type="logical" name="LREAL"> T  </i>
    <v name="ROPT">     -0.00040000     -0.00040000     -0.00040000</v>
    <i type="int" name="LMAXPAW">  -100</i>
    <i type="int" name="LMAXMIX">     2</i>
    <i type="logical" name="NLSPLINE"> F  </i>
   </separator>
   <separator name="electronic startup" >
    <i type="int" name="ISTART">     1</i>
    <i type="int" name="ICHARG">    11</i>
    <i type="int" name="INIWAV">     1</i>
   </separator>
   <separator name="electronic spin" >
    <i type="int" name="ISPIN">     1</i>
    <i type="logical" name="LNONCOLLINEAR"> F  </i>
    <v name="MAGMOM">      1.00000000      1.00000000      1.00000000      1.00000000      1.00000000      1.00000000      1.00000000      1.00000000      1.00000000      1.00000000      1.00000000      1.00000000      1.00000000      1.00000000      1.00000000      1.00000000      1.00000000      1.00000000      1.00000000      1.00000000
      1.00000000      1.00000000      1.00000000      1.00000000      1.00000000      1.00000000      1.00000000      1.00000000      1.00000000      1.00000000      1.00000000      1.00000000      1.00000000      1.00000000      1.00000000      1.00000000      1.00000000      1.00000000      1.00000000      1.00000000
      1.00000000      1.00000000      1.00000000      1.00000000      1.00000000      1.00000000      1.00000000      1.00000000      1.00000000      1.00000000      1.00000000      1.00000000      1.00000000      1.00000000      1.00000000      1.00000000      1.00000000      1.00000000      1.00000000      1.00000000
      1.00000000      1.00000000      1.00000000      1.00000000      1.00000000      1.00000000      1.00000000      1.00000000      1.00000000      1.00000000      1.00000000      1.00000000      1.00000000      1.00000000      1.00000000      1.00000000      1.00000000      1.00000000      1.00000000      1.00000000
      1.00000000      1.00000000      1.00000000      1.00000000      1.00000000      1.00000000      1.00000000      1.00000000      1.00000000      1.00000000      1.00000000      1.00000000      1.00000000      1.00000000      1.00000000      1.00000000      1.00000000      1.00000000      1.00000000      1.00000000
      1.00000000      1.00000000</v>
    <i name="NUPDOWN">     -1.00000000</i>
    <i type="logical" name="LSORBIT"> F  </i>
    <v name="SAXIS">      0.00000000      0.00000000      1.00000000</v>
    <i type="logical" name="LSPIRAL"> F  </i>
    <v name="QSPIRAL">      0.00000000      0.00000000      0.00000000</v>
    <i type="logical" name="LZEROZ"> F  </i>
   </separator>
   <separator name="electronic exchange-correlation" >
    <i type="logical" name="LASPH"> F  </i>
    <i type="logical" name="LMETAGGA"> F  </i>
   </separator>
   <separator name="electronic convergence" >
    <i type="int" name="NELM">   200</i>
    <i type="int" name="NELMDL">     0</i>
    <i type="int" name="NELMIN">     2</i>
    <i name="ENINI">    500.00000000</i>
    <separator name="electronic convergence detail" >
     <i type="logical" name="LDIAG"> T  </i>
     <i type="logical" name="LSUBROT"> F  </i>
     <i name="WEIMIN">      0.00000000</i>
     <i name="EBREAK">      0.00000001</i>
     <i name="DEPER">      0.30000000</i>
     <i type="int" name="NRMM">     4</i>
     <i name="TIME">      0.40000000</i>
    </separator>
   </separator>
   <separator name="electronic mixer" >
    <i name="AMIX">      0.40000000</i>
    <i name="BMIX">      1.00000000</i>
    <i name="AMIN">      0.10000000</i>
    <i name="AMIX_MAG">      1.60000000</i>
    <i name="BMIX_MAG">      1.00000000</i>
    <separator name="electronic mixer details" >
     <i type="int" name="IMIX">     4</i>
     <i type="logical" name="MIXFIRST"> F  </i>
     <i type="int" name="MAXMIX">   -45</i>
     <i name="WC">    100.00000000</i>
     <i type="int" name="INIMIX">     1</i>
     <i type="int" name="MIXPRE">     1</i>
     <i type="int" name="MREMOVE">     5</i>
    </separator>
   </separator>
   <separator name="electronic dipolcorrection" >
    <i type="logical" name="LDIPOL"> F  </i>
    <i type="logical" name="LMONO"> F  </i>
    <i type="int" name="IDIPOL">     0</i>
    <i name="EPSILON">      1.00000000</i>
    <v name="DIPOL">   -100.00000000   -100.00000000   -100.00000000</v>
    <i name="EFIELD">      0.00000000</i>
   </separator>
  </separator>
  <separator name="grids" >
   <i type="int" name="NGX">   216</i>
   <i type="int" name="NGY">   216</i>
   <i type="int" name="NGZ">   150</i>
   <i type="int" name="NGXF">   324</i>
   <i type="int" name="NGYF">   324</i>
   <i type="int" name="NGZF">   224</i>
   <i type="logical" name="ADDGRID"> F  </i>
  </separator>
  <separator name="ionic" >
   <i type="int" name="NSW">     0</i>
   <i type="int" name="IBRION">    -1</i>
   <i type="int" name="MDALGO">     0</i>
   <i type="int" name="ISIF">     2</i>
   <i name="PSTRESS">      0.00000000</i>
   <i name="EDIFFG">     -0.01000000</i>
   <i type="int" name="NFREE">     0</i>
   <i name="POTIM">      0.30000000</i>
   <i name="SMASS">     -3.00000000</i>
   <i name="SCALEE">      1.00000000</i>
  </separator>
  <separator name="ionic md" >
   <i name="TEBEG">      0.00010000</i>
   <i name="TEEND">      0.00010000</i>
   <i type="int" name="NBLOCK">     1</i>
   <i type="int" name="KBLOCK">     1</i>
   <i type="int" name="NPACO">   256</i>
   <i name="APACO">     16.00000000</i>
  </separator>
  <separator name="symmetry" >
   <i type="int" name="ISYM">     2</i>
   <i name="SYMPREC">      0.00001000</i>
  </separator>
  <separator name="dos" >
   <i type="int" name="LORBIT">     0</i>
   <v name="RWIGS">     -1.00000000     -1.00000000     -1.00000000</v>
   <i type="int" name="NEDOS">   301</i>
   <i name="EMIN">     10.00000000</i>
   <i name="EMAX">    -10.00000000</i>
   <i name="EFERMI">      0.00000000</i>
  </separator>
  <separator name="writing" >
   <i type="int" name="NWRITE">     0</i>
   <i type="logical" name="LWAVE"> T  </i>
   <i type="logical" name="LDOWNSAMPLE"> F  </i>
   <i type="logical" name="LCHARG"> T  </i>
   <i type="logical" name="LPARD"> F  </i>
   <i type="logical" name="LVTOT"> F  </i>
   <i type="logical" name="LVHAR"> F  </i>
   <i type="logical" name="LELF"> F  </i>
   <i type="logical" name="LOPTICS"> F  </i>
   <v name="STM">      0.00000000      0.00000000      0.00000000      0.00000000      0.00000000      0.00000000      0.00000000</v>
  </separator>
  <separator name="performance" >
   <i type="int" name="NPAR">    16</i>
   <i type="int" name="NSIM">     4</i>
   <i type="int" name="NBLK">    -1</i>
   <i type="logical" name="LPLANE"> T  </i>
   <i type="logical" name="LSCALAPACK"> T  </i>
   <i type="logical" name="LSCAAWARE"> F  </i>
   <i type="logical" name="LSCALU"> F  </i>
   <i type="logical" name="LASYNC"> F  </i>
   <i type="logical" name="LORBITALREAL"> F  </i>
  </separator>
  <separator name="miscellaneous" >
   <i type="int" name="IDIOT">     3</i>
   <i type="int" name="ISPECIAL">     0</i>
   <i type="logical" name="LMUSIC"> F  </i>
   <v name="POMASS">     14.00100000     12.01100000      1.00000000</v>
   <v name="DARWINR">      0.00000000      0.00000000      0.00000000</v>
   <v name="DARWINV">      1.00000000      1.00000000      1.00000000</v>
   <i type="logical" name="LCORR"> T  </i>
  </separator>
  <i type="logical" name="GGA_COMPAT"> T  </i>
  <i type="logical" name="LBERRY"> F  </i>
  <i type="int" name="ICORELEVEL">     0</i>
  <i type="logical" name="LDAU"> F  </i>
  <i type="int" name="I_CONSTRAINED_M">     0</i>
  <separator name="electronic exchange-correlation" >
   <i type="string" name="GGA">PE</i>
   <i type="int" name="VOSKOWN">     0</i>
   <i type="logical" name="LHFCALC"> F  </i>
   <i type="string" name="PRECFOCK"></i>
   <i type="logical" name="LSYMGRAD"> F  </i>
   <i type="logical" name="LHFONE"> F  </i>
   <i type="logical" name="LRHFCALC"> F  </i>
   <i type="logical" name="LTHOMAS"> F  </i>
   <i type="logical" name="LMODELHF"> F  </i>
   <i name="ENCUT4O">     -1.00000000</i>
   <i type="int" name="EXXOEP">     0</i>
   <i type="int" name="FOURORBIT">     0</i>
   <i name="AEXX">      0.00000000</i>
   <i name="HFALPHA">      0.00000000</i>
   <i name="MCALPHA">      0.00000000</i>
   <i name="ALDAX">      1.00000000</i>
   <i name="AGGAX">      1.00000000</i>
   <i name="ALDAC">      1.00000000</i>
   <i name="AGGAC">      1.00000000</i>
   <i type="int" name="NKREDX">     1</i>
   <i type="int" name="NKREDY">     1</i>
   <i type="int" name="NKREDZ">     1</i>
   <i type="logical" name="SHIFTRED"> F  </i>
   <i type="logical" name="ODDONLY"> F  </i>
   <i type="logical" name="EVENONLY"> F  </i>
   <i type="int" name="LMAXFOCK">     0</i>
   <i type="int" name="NMAXFOCKAE">     0</i>
   <i type="logical" name="LFOCKAEDFT"> F  </i>
   <i name="HFSCREEN">      0.00000000</i>
   <i name="HFSCREENC">      0.00000000</i>
   <i type="int" name="NBANDSGWLOW">     0</i>
  </separator>
  <separator name="vdW DFT" >
   <i type="logical" name="LUSE_VDW"> F  </i>
   <i name="Zab_VDW">     -0.84910000</i>
   <i name="PARAM1">      0.12340000</i>
   <i name="PARAM2">      1.00000000</i>
   <i name="PARAM3">      0.00000000</i>
  </separator>
  <separator name="model GW" >
   <i type="int" name="MODEL_GW">     0</i>
   <i name="MODEL_EPS0">     88.27275255</i>
   <i name="MODEL_ALPHA">      1.00000000</i>
  </separator>
  <separator name="linear response parameters" >
   <i type="logical" name="LEPSILON"> F  </i>
   <i type="logical" name="LRPA"> F  </i>
   <i type="logical" name="LNABLA"> F  </i>
   <i type="logical" name="LVEL"> F  </i>
   <i type="int" name="KINTER">     0</i>
   <i name="CSHIFT">      0.10000000</i>
   <i name="OMEGAMAX">     -1.00000000</i>
   <i name="DEG_THRESHOLD">      0.00200000</i>
   <i name="RTIME">     -0.10000000</i>
   <i name="WPLASMAI">      0.00000000</i>
   <v name="DFIELD">      0.00000000      0.00000000      0.00000000</v>
   <v name="WPLASMA">      0.00000000      0.00000000      0.00000000      0.00000000      0.00000000      0.00000000      0.00000000      0.00000000      0.00000000</v>
  </separator>
  <separator name="orbital magnetization" >
   <i type="logical" name="NUCIND"> F  </i>
   <v name="MAGPOS">      0.00000000      0.00000000      0.00000000</v>
   <i type="logical" name="LNICSALL"> T  </i>
   <i type="logical" name="ORBITALMAG"> F  </i>
   <i type="logical" name="LMAGBLOCH"> F  </i>
   <i type="logical" name="LCHIMAG"> F  </i>
   <i type="logical" name="LGAUGE"> T  </i>
   <i type="int" name="MAGATOM">     0</i>
   <v name="MAGDIPOL">      0.00000000      0.00000000      0.00000000</v>
   <v name="AVECCONST">      0.00000000      0.00000000      0.00000000</v>
  </separator>
  <separator name="response functions" >
   <i type="logical" name="LADDER"> F  </i>
   <i type="logical" name="LRPAFORCE"> F  </i>
   <i type="logical" name="LFXC"> F  </i>
   <i type="logical" name="LHARTREE"> T  </i>
   <i type="int" name="IBSE">     0</i>
   <v type="int" name="KPOINT">    -1     0     0     0</v>
   <i type="logical" name="LTCTE"> F  </i>
   <i type="logical" name="LTETE"> F  </i>
   <i type="logical" name="LTRIPLET"> F  </i>
   <i type="logical" name="LFXCEPS"> F  </i>
   <i type="logical" name="LFXHEG"> F  </i>
   <i type="int" name="NATURALO">     2</i>
   <i type="logical" name="L2ORDER"> F  </i>
   <i type="logical" name="LMP2LT"> F  </i>
   <i type="logical" name="LUSEW"> F  </i>
   <i name="ENCUTGW">     -2.00000000</i>
   <i name="ENCUTGWSOFT">     -2.00000000</i>
   <i name="ENCUTLF">     -1.00000000</i>
   <i type="int" name="LMAXMP2">    -1</i>
   <i name="SCISSOR">      0.00000000</i>
   <i type="int" name="NOMEGA">     0</i>
   <i type="int" name="NOMEGAR">     0</i>
   <i type="int" name="NBANDSGW">    -1</i>
   <i type="int" name="NBANDSO">    -1</i>
   <i type="int" name="NBANDSV">    -1</i>
   <i type="int" name="NELM">   200</i>
   <i type="int" name="NELMHF">     1</i>
   <i type="int" name="DIM">     3</i>
   <i type="int" name="ANTIRES">     0</i>
   <i name="OMEGAMAX">    -30.00000000</i>
   <i name="OMEGAMIN">    -30.00000000</i>
   <i name="OMEGATL">   -200.00000000</i>
   <i type="int" name="OMEGAGRID">   140</i>
   <i name="CSHIFT">     -0.10000000</i>
   <i type="logical" name="SELFENERGY"> F  </i>
   <i type="logical" name="LSPECTRAL"> F  </i>
   <i type="logical" name="LSPECTRALGW"> F  </i>
   <i type="logical" name="LSINGLES"> F  </i>
   <i type="logical" name="LFERMIGW"> F  </i>
   <i type="logical" name="ODDONLYGW"> F  </i>
   <i type="logical" name="EVENONLYGW"> F  </i>
   <i type="int" name="NKREDLFX">     1</i>
   <i type="int" name="NKREDLFY">     1</i>
   <i type="int" name="NKREDLFZ">     1</i>
   <i type="int" name="MAXMEM">  2800</i>
   <i type="int" name="TELESCOPE">     0</i>
   <i type="int" name="TAUPAR">     1</i>
   <i type="int" name="OMEGAPAR">    -1</i>
   <i name="LAMBDA">      1.00000000</i>
  </separator>
  <separator name="External order field" >
   <i name="OFIELD_KAPPA">      0.00000000</i>
   <v name="OFIELD_K">      0.00000000      0.00000000      0.00000000</v>
   <i name="OFIELD_Q6_NEAR">      0.00000000</i>
   <i name="OFIELD_Q6_FAR">      0.00000000</i>
   <i name="OFIELD_A">      0.00000000</i>
  </separator>
  <separator name="solvation model" >
   <i type="logical" name="LSOL"> F  </i>
  </separator>
 </parameters>
 <atominfo>
  <atoms>     102 </atoms>
  <types>       3 </types>
  <array name="atoms" >
   <dimension dim="1">ion</dimension>
   <field type="string">element</field>
   <field type="int">atomtype</field>
   <set>
    <rc><c>N </c><c>   1</c></rc>
    <rc><c>N </c><c>   1</c></rc>
    <rc><c>N </c><c>   1</c></rc>
    <rc><c>N </c><c>   1</c></rc>
    <rc><c>N </c><c>   1</c></rc>
    <rc><c>N </c><c>   1</c></rc>
    <rc><c>N </c><c>   1</c></rc>
    <rc><c>N </c><c>   1</c></rc>
    <rc><c>N </c><c>   1</c></rc>
    <rc><c>N </c><c>   1</c></rc>
    <rc><c>N </c><c>   1</c></rc>
    <rc><c>N </c><c>   1</c></rc>
    <rc><c>N </c><c>   1</c></rc>
    <rc><c>N </c><c>   1</c></rc>
    <rc><c>N </c><c>   1</c></rc>
    <rc><c>N </c><c>   1</c></rc>
    <rc><c>N </c><c>   1</c></rc>
    <rc><c>N </c><c>   1</c></rc>
    <rc><c>C </c><c>   2</c></rc>
    <rc><c>C </c><c>   2</c></rc>
    <rc><c>C </c><c>   2</c></rc>
    <rc><c>C </c><c>   2</c></rc>
    <rc><c>C </c><c>   2</c></rc>
    <rc><c>C </c><c>   2</c></rc>
    <rc><c>C </c><c>   2</c></rc>
    <rc><c>C </c><c>   2</c></rc>
    <rc><c>C </c><c>   2</c></rc>
    <rc><c>C </c><c>   2</c></rc>
    <rc><c>C </c><c>   2</c></rc>
    <rc><c>C </c><c>   2</c></rc>
    <rc><c>C </c><c>   2</c></rc>
    <rc><c>C </c><c>   2</c></rc>
    <rc><c>C </c><c>   2</c></rc>
    <rc><c>C </c><c>   2</c></rc>
    <rc><c>C </c><c>   2</c></rc>
    <rc><c>C </c><c>   2</c></rc>
    <rc><c>C </c><c>   2</c></rc>
    <rc><c>C </c><c>   2</c></rc>
    <rc><c>C </c><c>   2</c></rc>
    <rc><c>C </c><c>   2</c></rc>
    <rc><c>C </c><c>   2</c></rc>
    <rc><c>C </c><c>   2</c></rc>
    <rc><c>C </c><c>   2</c></rc>
    <rc><c>C </c><c>   2</c></rc>
    <rc><c>C </c><c>   2</c></rc>
    <rc><c>C </c><c>   2</c></rc>
    <rc><c>C </c><c>   2</c></rc>
    <rc><c>C </c><c>   2</c></rc>
    <rc><c>C </c><c>   2</c></rc>
    <rc><c>C </c><c>   2</c></rc>
    <rc><c>C </c><c>   2</c></rc>
    <rc><c>C </c><c>   2</c></rc>
    <rc><c>C </c><c>   2</c></rc>
    <rc><c>C </c><c>   2</c></rc>
    <rc><c>C </c><c>   2</c></rc>
    <rc><c>C </c><c>   2</c></rc>
    <rc><c>C </c><c>   2</c></rc>
    <rc><c>C </c><c>   2</c></rc>
    <rc><c>C </c><c>   2</c></rc>
    <rc><c>C </c><c>   2</c></rc>
    <rc><c>C </c><c>   2</c></rc>
    <rc><c>C </c><c>   2</c></rc>
    <rc><c>C </c><c>   2</c></rc>
    <rc><c>C </c><c>   2</c></rc>
    <rc><c>C </c><c>   2</c></rc>
    <rc><c>C </c><c>   2</c></rc>
    <rc><c>H </c><c>   3</c></rc>
    <rc><c>H </c><c>   3</c></rc>
    <rc><c>H </c><c>   3</c></rc>
    <rc><c>H </c><c>   3</c></rc>
    <rc><c>H </c><c>   3</c></rc>
    <rc><c>H </c><c>   3</c></rc>
    <rc><c>H </c><c>   3</c></rc>
    <rc><c>H </c><c>   3</c></rc>
    <rc><c>H </c><c>   3</c></rc>
    <rc><c>H </c><c>   3</c></rc>
    <rc><c>H </c><c>   3</c></rc>
    <rc><c>H </c><c>   3</c></rc>
    <rc><c>H </c><c>   3</c></rc>
    <rc><c>H </c><c>   3</c></rc>
    <rc><c>H </c><c>   3</c></rc>
    <rc><c>H </c><c>   3</c></rc>
    <rc><c>H </c><c>   3</c></rc>
    <rc><c>H </c><c>   3</c></rc>
    <rc><c>H </c><c>   3</c></rc>
    <rc><c>H </c><c>   3</c></rc>
    <rc><c>H </c><c>   3</c></rc>
    <rc><c>H </c><c>   3</c></rc>
    <rc><c>H </c><c>   3</c></rc>
    <rc><c>H </c><c>   3</c></rc>
    <rc><c>H </c><c>   3</c></rc>
    <rc><c>H </c><c>   3</c></rc>
    <rc><c>H </c><c>   3</c></rc>
    <rc><c>H </c><c>   3</c></rc>
    <rc><c>H </c><c>   3</c></rc>
    <rc><c>H </c><c>   3</c></rc>
    <rc><c>H </c><c>   3</c></rc>
    <rc><c>H </c><c>   3</c></rc>
    <rc><c>H </c><c>   3</c></rc>
    <rc><c>H </c><c>   3</c></rc>
    <rc><c>H </c><c>   3</c></rc>
    <rc><c>H </c><c>   3</c></rc>
   </set>
  </array>
  <array name="atomtypes" >
   <dimension dim="1">type</dimension>
   <field type="int">atomspertype</field>
   <field type="string">element</field>
   <field>mass</field>
   <field>valence</field>
   <field type="string">pseudopotential</field>
   <set>
    <rc><c>  18</c><c>N </c><c>     14.00100000</c><c>      5.00000000</c><c>  PAW_PBE N 08Apr2002                   </c></rc>
    <rc><c>  48</c><c>C </c><c>     12.01100000</c><c>      4.00000000</c><c>  PAW_PBE C 08Apr2002                   </c></rc>
    <rc><c>  36</c><c>H </c><c>      1.00000000</c><c>      1.00000000</c><c>  PAW_PBE H 15Jun2001                   </c></rc>
   </set>
  </array>
 </atominfo>
 <structure name="initialpos" >
  <crystal>
   <varray name="basis" >
    <v>      29.34980957       0.07052449       0.00000000 </v>
    <v>     -14.61405634      25.52956080       0.00000000 </v>
    <v>       0.00000000       0.00000000      20.00000000 </v>
   </varray>
   <i name="volume">  15006.36793326 </i>
   <varray name="rec_basis" >
    <v>       0.03402497       0.01947714       0.00000000 </v>
    <v>      -0.00009399       0.03911647       0.00000000 </v>
    <v>       0.00000000       0.00000000       0.05000000 </v>
   </varray>
  </crystal>
  <varray name="positions" >
   <v>       0.30183320       0.61399110       0.49063334 </v>
   <v>       0.30970682       0.69889721       0.49247554 </v>
   <v>       0.38674754       0.69049344       0.49062881 </v>
   <v>       0.69722500       0.38610757       0.51452916 </v>
   <v>       0.68935584       0.30117974       0.51271475 </v>
   <v>       0.61238395       0.30966077       0.51315695 </v>
   <v>       0.46657141       0.04038345       0.59958886 </v>
   <v>       0.61915567       0.19205729       0.50530583 </v>
   <v>       0.57342762       0.53432142       0.59709983 </v>
   <v>       0.57290218       0.37996089       0.50709976 </v>
   <v>       0.96004268       0.42446211       0.59821555 </v>
   <v>       0.80644028       0.42510901       0.50687007 </v>
   <v>       0.40700450       0.98064526       0.46674736 </v>
   <v>       0.38015930       0.80788507       0.50267296 </v>
   <v>       0.57116664       0.59130753       0.46315014 </v>
   <v>       0.42555788       0.61959690       0.49988384 </v>
   <v>       0.02191948       0.42753077       0.46841484 </v>
   <v>       0.19278841       0.57545271       0.50180793 </v>
   <v>       0.35448710       0.63826058       0.49054735 </v>
   <v>       0.28163937       0.64636599       0.49195943 </v>
   <v>       0.36210148       0.71873222       0.49192537 </v>
   <v>       0.39725877       0.77593739       0.49223980 </v>
   <v>       0.37662455       0.60283518       0.49005350 </v>
   <v>       0.22423252       0.62439034       0.49246256 </v>
   <v>       0.64456677       0.36186683       0.51380267 </v>
   <v>       0.71738773       0.35372269       0.51336669 </v>
   <v>       0.63697242       0.28138237       0.51250505 </v>
   <v>       0.60181264       0.22418587       0.51160469 </v>
   <v>       0.62225038       0.39712884       0.51345353 </v>
   <v>       0.77479042       0.37582823       0.51258946 </v>
   <v>       0.58420532       0.13822388       0.50798222 </v>
   <v>       0.54172064       0.11604179       0.55255702 </v>
   <v>       0.50764636       0.06172962       0.55461793 </v>
   <v>       0.51550094       0.02910245       0.50896218 </v>
   <v>       0.48016995       0.97159515       0.50861764 </v>
   <v>       0.49882604       0.93805530       0.52898728 </v>
   <v>       0.46759148       0.88393241       0.52790277 </v>
   <v>       0.55368016       0.41499448       0.50921419 </v>
   <v>       0.57395661       0.45816022       0.55255544 </v>
   <v>       0.55346932       0.49237544       0.55354030 </v>
   <v>       0.51254774       0.48380589       0.50819611 </v>
   <v>       0.48997048       0.51915153       0.50688784 </v>
   <v>       0.43808651       0.50102867       0.52772845 </v>
   <v>       0.41495213       0.53238590       0.52613035 </v>
   <v>       0.86053894       0.44425159       0.50907992 </v>
   <v>       0.88354359       0.42394997       0.55261112 </v>
   <v>       0.93811251       0.44449911       0.55424665 </v>
   <v>       0.97026143       0.48552338       0.50929603 </v>
   <v>       0.02808458       0.50866859       0.50875682 </v>
   <v>       0.06052437       0.56101831       0.52807863 </v>
   <v>       0.11489673       0.58499420       0.52669255 </v>
   <v>       0.55892645       0.05213961       0.46582828 </v>
   <v>       0.59373731       0.10567576       0.46548846 </v>
   <v>       0.41526470       0.86178618       0.50562344 </v>
   <v>       0.39551219       0.89453453       0.48654573 </v>
   <v>       0.42731321       0.94920864       0.48640590 </v>
   <v>       0.49218728       0.43970051       0.46636335 </v>
   <v>       0.51129743       0.40488214       0.46701204 </v>
   <v>       0.44455435       0.58432447       0.50286619 </v>
   <v>       0.49670042       0.60351021       0.48308729 </v>
   <v>       0.51978661       0.57155445       0.48343700 </v>
   <v>       0.94634511       0.50578595       0.46705921 </v>
   <v>       0.89253850       0.48661762       0.46707769 </v>
   <v>       0.13856163       0.55586571       0.50502686 </v>
   <v>       0.10696065       0.50333579       0.48684816 </v>
   <v>       0.05201427       0.47930164       0.48715037 </v>
   <v>       0.21171384       0.65370126       0.48444579 </v>
   <v>       0.34730118       0.56145514       0.48115526 </v>
   <v>       0.43878082       0.78797287       0.48302369 </v>
   <v>       0.78747933       0.34627102       0.51532406 </v>
   <v>       0.65183471       0.43900695       0.51700128 </v>
   <v>       0.55978544       0.21205354       0.51510966 </v>
   <v>       0.53917103       0.95572657       0.54691157 </v>
   <v>       0.48282403       0.85910484       0.54598622 </v>
   <v>       0.53625055       0.14118684       0.58799910 </v>
   <v>       0.46853094       0.06207228       0.63987875 </v>
   <v>       0.44886922       0.00127069       0.60757450 </v>
   <v>       0.41589297       0.46104181       0.54658135 </v>
   <v>       0.37517686       0.51760652       0.54469782 </v>
   <v>       0.60490536       0.46422853       0.58779032 </v>
   <v>       0.59335604       0.53287751       0.63757846 </v>
   <v>       0.55187396       0.55219128       0.60460061 </v>
   <v>       0.04170906       0.58290779       0.54545667 </v>
   <v>       0.13876382       0.62512306       0.54412139 </v>
   <v>       0.85880597       0.39298989       0.58763220 </v>
   <v>       0.93857693       0.40471716       0.63859106 </v>
   <v>       0.99921036       0.44596923       0.60627524 </v>
   <v>       0.56501018       0.02664117       0.43174881 </v>
   <v>       0.62742776       0.12326312       0.43206386 </v>
   <v>       0.35467823       0.87632499       0.47044741 </v>
   <v>       0.43292979       0.01857002       0.45622896 </v>
   <v>       0.37441364       0.96423808       0.43789769 </v>
   <v>       0.46028554       0.43305894       0.43253908 </v>
   <v>       0.49522088       0.37064650       0.43461692 </v>
   <v>       0.51888884       0.64402590       0.46611830 </v>
   <v>       0.58329185       0.56518538       0.45311390 </v>
   <v>       0.58691227       0.62348712       0.43369259 </v>
   <v>       0.97140718       0.53764027       0.43335618 </v>
   <v>       0.87430366       0.50257833       0.43426164 </v>
   <v>       0.12629854       0.48154992       0.47112823 </v>
   <v>       0.98353689       0.41431585       0.45828789 </v>
   <v>       0.03919480       0.41192374       0.43987492 </v>
  </varray>
 </structure>
 <calculation>
  <scstep>
   <time name="dav">  595.00  601.15</time>
   <time name="total">  595.27  601.43</time>
   <energy>
    <i name="alphaZ">     30.96743421 </i>
    <i name="ewald">  36840.53087168 </i>
    <i name="hartreedc"> -46898.24472623 </i>
    <i name="XCdc">   1124.23016447 </i>
    <i name="pawpsdc">  29872.46701724 </i>
    <i name="pawaedc"> -29931.78515564 </i>
    <i name="eentropy">     -0.00000000 </i>
    <i name="bandstr">  -4021.50686430 </i>
    <i name="atom">  12274.26300618 </i>
    <i name="e_fr_energy">   -709.07825239 </i>
    <i name="e_wo_entrp">   -709.07825239 </i>
    <i name="e_0_energy">   -709.07825239 </i>
   </energy>
  </scstep>
  <scstep>
   <time name="dav">  671.01  678.09</time>
   <time name="total">  671.02  678.11</time>
   <energy>
    <i name="e_fr_energy">   -709.66477310 </i>
    <i name="e_wo_entrp">   -709.66477310 </i>
    <i name="e_0_energy">   -709.66477310 </i>
   </energy>
  </scstep>
  <scstep>
   <time name="dav">  743.61  750.77</time>
   <time name="total">  743.63  750.79</time>
   <energy>
    <i name="e_fr_energy">   -709.68120099 </i>
    <i name="e_wo_entrp">   -709.68120099 </i>
    <i name="e_0_energy">   -709.68120099 </i>
   </energy>
  </scstep>
  <scstep>
   <time name="dav">  666.48  673.44</time>
   <time name="total">  666.49  673.46</time>
   <energy>
    <i name="e_fr_energy">   -709.68146267 </i>
    <i name="e_wo_entrp">   -709.68146267 </i>
    <i name="e_0_energy">   -709.68146267 </i>
   </energy>
  </scstep>
  <scstep>
   <time name="dav">  684.77  691.94</time>
   <time name="total">  684.80  691.97</time>
   <energy>
    <i name="e_fr_energy">   -709.68147523 </i>
    <i name="e_wo_entrp">   -709.68147523 </i>
    <i name="e_0_energy">   -709.68147523 </i>
   </energy>
  </scstep>
  <scstep>
   <time name="dav">  523.97  529.04</time>
   <time name="total">  524.00  529.06</time>
   <energy>
    <i name="alphaZ">     30.96743421 </i>
    <i name="ewald">  36840.53087168 </i>
    <i name="hartreedc"> -46898.24472623 </i>
    <i name="XCdc">   1124.23016447 </i>
    <i name="pawpsdc">  29872.46701724 </i>
    <i name="pawaedc"> -29931.78515564 </i>
    <i name="eentropy">     -0.00000000 </i>
    <i name="bandstr">  -4022.11008745 </i>
    <i name="atom">  12274.26300618 </i>
    <i name="e_fr_energy">   -709.68147554 </i>
    <i name="e_wo_entrp">   -709.68147554 </i>
    <i name="e_0_energy">   -709.68147554 </i>
   </energy>
  </scstep>
  <structure>
   <crystal>
    <varray name="basis" >
     <v>      29.34980957       0.07052449       0.00000000 </v>
     <v>     -14.61405634      25.52956080       0.00000000 </v>
     <v>       0.00000000       0.00000000      20.00000000 </v>
    </varray>
    <i name="volume">  15006.36793326 </i>
    <varray name="rec_basis" >
     <v>       0.03402497       0.01947714       0.00000000 </v>
     <v>      -0.00009399       0.03911647       0.00000000 </v>
     <v>       0.00000000       0.00000000       0.05000000 </v>
    </varray>
   </crystal>
   <varray name="positions" >
    <v>       0.30183320       0.61399110       0.49063334 </v>
    <v>       0.30970682       0.69889721       0.49247554 </v>
    <v>       0.38674754       0.69049344       0.49062881 </v>
    <v>       0.69722500       0.38610757       0.51452916 </v>
    <v>       0.68935584       0.30117974       0.51271475 </v>
    <v>       0.61238395       0.30966077       0.51315695 </v>
    <v>       0.46657141       0.04038345       0.59958886 </v>
    <v>       0.61915567       0.19205729       0.50530583 </v>
    <v>       0.57342762       0.53432142       0.59709983 </v>
    <v>       0.57290218       0.37996089       0.50709976 </v>
    <v>       0.96004268       0.42446211       0.59821555 </v>
    <v>       0.80644028       0.42510901       0.50687007 </v>
    <v>       0.40700450       0.98064526       0.46674736 </v>
    <v>       0.38015930       0.80788507       0.50267296 </v>
    <v>       0.57116664       0.59130753       0.46315014 </v>
    <v>       0.42555788       0.61959690       0.49988384 </v>
    <v>       0.02191948       0.42753077       0.46841484 </v>
    <v>       0.19278841       0.57545271       0.50180793 </v>
    <v>       0.35448710       0.63826058       0.49054735 </v>
    <v>       0.28163937       0.64636599       0.49195943 </v>
    <v>       0.36210148       0.71873222       0.49192537 </v>
    <v>       0.39725877       0.77593739       0.49223980 </v>
    <v>       0.37662455       0.60283518       0.49005350 </v>
    <v>       0.22423252       0.62439034       0.49246256 </v>
    <v>       0.64456677       0.36186683       0.51380267 </v>
    <v>       0.71738773       0.35372269       0.51336669 </v>
    <v>       0.63697242       0.28138237       0.51250505 </v>
    <v>       0.60181264       0.22418587       0.51160469 </v>
    <v>       0.62225038       0.39712884       0.51345353 </v>
    <v>       0.77479042       0.37582823       0.51258946 </v>
    <v>       0.58420532       0.13822388       0.50798222 </v>
    <v>       0.54172064       0.11604179       0.55255702 </v>
    <v>       0.50764636       0.06172962       0.55461793 </v>
    <v>       0.51550094       0.02910245       0.50896218 </v>
    <v>       0.48016995       0.97159515       0.50861764 </v>
    <v>       0.49882604       0.93805530       0.52898728 </v>
    <v>       0.46759148       0.88393241       0.52790277 </v>
    <v>       0.55368016       0.41499448       0.50921419 </v>
    <v>       0.57395661       0.45816022       0.55255544 </v>
    <v>       0.55346932       0.49237544       0.55354030 </v>
    <v>       0.51254774       0.48380589       0.50819611 </v>
    <v>       0.48997048       0.51915153       0.50688784 </v>
    <v>       0.43808651       0.50102867       0.52772845 </v>
    <v>       0.41495213       0.53238590       0.52613035 </v>
    <v>       0.86053894       0.44425159       0.50907992 </v>
    <v>       0.88354359       0.42394997       0.55261112 </v>
    <v>       0.93811251       0.44449911       0.55424665 </v>
    <v>       0.97026143       0.48552338       0.50929603 </v>
    <v>       0.02808458       0.50866859       0.50875682 </v>
    <v>       0.06052437       0.56101831       0.52807863 </v>
    <v>       0.11489673       0.58499420       0.52669255 </v>
    <v>       0.55892645       0.05213961       0.46582828 </v>
    <v>       0.59373731       0.10567576       0.46548846 </v>
    <v>       0.41526470       0.86178618       0.50562344 </v>
    <v>       0.39551219       0.89453453       0.48654573 </v>
    <v>       0.42731321       0.94920864       0.48640590 </v>
    <v>       0.49218728       0.43970051       0.46636335 </v>
    <v>       0.51129743       0.40488214       0.46701204 </v>
    <v>       0.44455435       0.58432447       0.50286619 </v>
    <v>       0.49670042       0.60351021       0.48308729 </v>
    <v>       0.51978661       0.57155445       0.48343700 </v>
    <v>       0.94634511       0.50578595       0.46705921 </v>
    <v>       0.89253850       0.48661762       0.46707769 </v>
    <v>       0.13856163       0.55586571       0.50502686 </v>
    <v>       0.10696065       0.50333579       0.48684816 </v>
    <v>       0.05201427       0.47930164       0.48715037 </v>
    <v>       0.21171384       0.65370126       0.48444579 </v>
    <v>       0.34730118       0.56145514       0.48115526 </v>
    <v>       0.43878082       0.78797287       0.48302369 </v>
    <v>       0.78747933       0.34627102       0.51532406 </v>
    <v>       0.65183471       0.43900695       0.51700128 </v>
    <v>       0.55978544       0.21205354       0.51510966 </v>
    <v>       0.53917103       0.95572657       0.54691157 </v>
    <v>       0.48282403       0.85910484       0.54598622 </v>
    <v>       0.53625055       0.14118684       0.58799910 </v>
    <v>       0.46853094       0.06207228       0.63987875 </v>
    <v>       0.44886922       0.00127069       0.60757450 </v>
    <v>       0.41589297       0.46104181       0.54658135 </v>
    <v>       0.37517686       0.51760652       0.54469782 </v>
    <v>       0.60490536       0.46422853       0.58779032 </v>
    <v>       0.59335604       0.53287751       0.63757846 </v>
    <v>       0.55187396       0.55219128       0.60460061 </v>
    <v>       0.04170906       0.58290779       0.54545667 </v>
    <v>       0.13876382       0.62512306       0.54412139 </v>
    <v>       0.85880597       0.39298989       0.58763220 </v>
    <v>       0.93857693       0.40471716       0.63859106 </v>
    <v>       0.99921036       0.44596923       0.60627524 </v>
    <v>       0.56501018       0.02664117       0.43174881 </v>
    <v>       0.62742776       0.12326312       0.43206386 </v>
    <v>       0.35467823       0.87632499       0.47044741 </v>
    <v>       0.43292979       0.01857002       0.45622896 </v>
    <v>       0.37441364       0.96423808       0.43789769 </v>
    <v>       0.46028554       0.43305894       0.43253908 </v>
    <v>       0.49522088       0.37064650       0.43461692 </v>
    <v>       0.51888884       0.64402590       0.46611830 </v>
    <v>       0.58329185       0.56518538       0.45311390 </v>
    <v>       0.58691227       0.62348712       0.43369259 </v>
    <v>       0.97140718       0.53764027       0.43335618 </v>
    <v>       0.87430366       0.50257833       0.43426164 </v>
    <v>       0.12629854       0.48154992       0.47112823 </v>
    <v>       0.98353689       0.41431585       0.45828789 </v>
    <v>       0.03919480       0.41192374       0.43987492 </v>
   </varray>
  </structure>
  <varray name="forces" >
   <v>      -0.00159263      -0.00058457      -0.00139197 </v>
   <v>       0.00231848      -0.00322042       0.00144262 </v>
   <v>       0.00045905      -0.00136269       0.00225885 </v>
   <v>       0.00014737       0.00017159      -0.00252054 </v>
   <v>       0.00107439       0.00237121      -0.00128144 </v>
   <v>       0.00026466       0.00041064       0.00043030 </v>
   <v>       0.00069077      -0.00025375      -0.00212231 </v>
   <v>       0.00375034      -0.00365556       0.00009842 </v>
   <v>       0.00428566      -0.00104678      -0.00022446 </v>
   <v>       0.00058553       0.00116095       0.00372611 </v>
   <v>       0.00833550      -0.00085112       0.00149566 </v>
   <v>       0.00160690      -0.00455593       0.00439137 </v>
   <v>      -0.00363636      -0.00350059      -0.00249227 </v>
   <v>       0.00178443       0.00000125      -0.00011082 </v>
   <v>       0.00088655      -0.00576524      -0.00014440 </v>
   <v>       0.00072160      -0.00167076      -0.00081978 </v>
   <v>      -0.00322445      -0.00132371      -0.00018214 </v>
   <v>       0.00410148       0.00198201      -0.00062684 </v>
   <v>       0.00234491       0.00187833      -0.00192926 </v>
   <v>      -0.00564288       0.00217649      -0.00077618 </v>
   <v>       0.00249689       0.00380766      -0.00007981 </v>
   <v>      -0.00241627       0.00250766       0.00058628 </v>
   <v>      -0.00043831      -0.00270803      -0.00061593 </v>
   <v>       0.00095968       0.00109322      -0.00142900 </v>
   <v>       0.00444478      -0.00224311      -0.00184666 </v>
   <v>      -0.00055456       0.00240534      -0.00001884 </v>
   <v>      -0.00219346      -0.00434842       0.00075070 </v>
   <v>      -0.00454027       0.00767694      -0.00043750 </v>
   <v>      -0.00080823      -0.00128117      -0.00350583 </v>
   <v>      -0.00121300       0.00088060      -0.00381577 </v>
   <v>       0.00107223      -0.00201562       0.00224527 </v>
   <v>       0.00313932      -0.00182270      -0.00175113 </v>
   <v>      -0.00353653       0.00155380       0.00288619 </v>
   <v>       0.00141488      -0.00316646      -0.00355275 </v>
   <v>       0.00314125       0.00093740       0.00104960 </v>
   <v>      -0.00350511      -0.00074126      -0.00047489 </v>
   <v>      -0.00059006       0.00355880      -0.00058289 </v>
   <v>       0.00281999      -0.00640102       0.00038741 </v>
   <v>       0.00198903       0.00443470       0.00101609 </v>
   <v>      -0.00113302       0.00583145      -0.00184632 </v>
   <v>       0.00225593       0.00256130       0.00001832 </v>
   <v>      -0.00273022      -0.00079022       0.00293283 </v>
   <v>      -0.00075981       0.00034864       0.00301307 </v>
   <v>       0.00188411      -0.00043774      -0.00098767 </v>
   <v>      -0.00173382       0.00237896      -0.00243354 </v>
   <v>      -0.00358514      -0.00219580      -0.00070645 </v>
   <v>      -0.00015892      -0.00044534      -0.00052881 </v>
   <v>       0.00128948       0.00475907      -0.00192386 </v>
   <v>      -0.00008960       0.00287949       0.00116000 </v>
   <v>      -0.00065275      -0.00252055      -0.00255618 </v>
   <v>       0.00101405       0.00011724      -0.00002943 </v>
   <v>      -0.00079341      -0.00052275      -0.00041791 </v>
   <v>      -0.00182160       0.00012680       0.00224236 </v>
   <v>       0.00205152      -0.00254293       0.00064722 </v>
   <v>      -0.00125892       0.00354637      -0.00067480 </v>
   <v>      -0.00095405      -0.00146071      -0.00018651 </v>
   <v>      -0.00554238      -0.00327609       0.00260222 </v>
   <v>      -0.00200370      -0.00539759       0.00366841 </v>
   <v>       0.00201056      -0.00118945      -0.00258595 </v>
   <v>      -0.00095856      -0.00060265      -0.00070972 </v>
   <v>      -0.00185098       0.00437793       0.00095384 </v>
   <v>       0.00171001      -0.00086724       0.00359300 </v>
   <v>       0.00143711      -0.00410073       0.00337162 </v>
   <v>      -0.00360592      -0.00053964       0.00170154 </v>
   <v>      -0.00320422      -0.00015466       0.00039791 </v>
   <v>       0.00103326      -0.00215692      -0.00086038 </v>
   <v>       0.00310253      -0.00115397       0.00070955 </v>
   <v>      -0.00000241      -0.00018608       0.00013000 </v>
   <v>      -0.00072917       0.00049549      -0.00087465 </v>
   <v>      -0.00134385       0.00060867       0.00137214 </v>
   <v>      -0.00353971       0.00046390      -0.00131611 </v>
   <v>      -0.00062776       0.00370072       0.00252992 </v>
   <v>       0.00190653       0.00095638       0.00087282 </v>
   <v>       0.00124701      -0.00256519       0.00220381 </v>
   <v>      -0.00145707       0.00120803       0.00025647 </v>
   <v>      -0.00013538      -0.00067028       0.00188216 </v>
   <v>      -0.00002706       0.00189975       0.00087402 </v>
   <v>      -0.00276146       0.00026820      -0.00167999 </v>
   <v>      -0.00010066       0.00038297      -0.00043685 </v>
   <v>      -0.00126954      -0.00121037      -0.00168352 </v>
   <v>      -0.00198367      -0.00218283      -0.00514436 </v>
   <v>      -0.00131385      -0.00039599      -0.00044091 </v>
   <v>       0.00283331       0.00013308       0.00076054 </v>
   <v>       0.00152466       0.00146859      -0.00332567 </v>
   <v>      -0.00023505      -0.00316986       0.00228260 </v>
   <v>       0.00187378      -0.00032602      -0.00581105 </v>
   <v>      -0.00163024      -0.00044891       0.00018844 </v>
   <v>      -0.00016041      -0.00026889       0.00163936 </v>
   <v>       0.00213236       0.00120739      -0.00260658 </v>
   <v>       0.00013757      -0.00137563      -0.00126633 </v>
   <v>      -0.00019101       0.00020436       0.00007101 </v>
   <v>       0.00303536       0.00077150       0.00195566 </v>
   <v>      -0.00078374       0.00139407      -0.00055748 </v>
   <v>      -0.00226748       0.00239018       0.00105100 </v>
   <v>       0.00055059      -0.00045033      -0.00046514 </v>
   <v>      -0.00182556       0.00183610       0.00009477 </v>
   <v>      -0.00109591      -0.00028660       0.00032229 </v>
   <v>       0.00016752       0.00288559       0.00533842 </v>
   <v>      -0.00163050       0.00409307       0.00343970 </v>
   <v>       0.00184052       0.00166310       0.00013882 </v>
   <v>       0.00237501       0.00117418      -0.00126964 </v>
   <v>      -0.00040782       0.00126977      -0.00112148 </v>
  </varray>
  <varray name="stress" >
   <v>       0.00749995       0.00317500       0.00134191 </v>
   <v>       0.00317500       0.01832819      -0.00033205 </v>
   <v>       0.00134192      -0.00033205      -0.14442798 </v>
  </varray>
  <energy>
   <i name="e_fr_energy">   -711.54333873 </i>
   <i name="e_wo_entrp">   -711.54333873 </i>
   <i name="e_0_energy">     -0.00000000 </i>
  </energy>
  <time name="totalsc"> 9728.20 9820.93</time>
  <eigenvalues>
   <array>
    <dimension dim="1">band</dimension>
    <dimension dim="2">kpoint</dimension>
    <dimension dim="3">spin</dimension>
    <field>eigene</field>
    <field>occ</field>
    <set>
     <set comment="spin 1">
      <set comment="kpoint 1">
       <r>  -25.4296    1.0000 </r>
       <r>  -25.3386    1.0000 </r>
       <r>  -23.4246    1.0000 </r>
       <r>  -23.4186    1.0000 </r>
       <r>  -23.3273    1.0000 </r>
       <r>  -23.3227    1.0000 </r>
       <r>  -23.2634    1.0000 </r>
       <r>  -23.1617    1.0000 </r>
       <r>  -23.0360    1.0000 </r>
       <r>  -23.0276    1.0000 </r>
       <r>  -22.9729    1.0000 </r>
       <r>  -22.7119    1.0000 </r>
       <r>  -22.7066    1.0000 </r>
       <r>  -22.6878    1.0000 </r>
       <r>  -22.2195    1.0000 </r>
       <r>  -22.2181    1.0000 </r>
       <r>  -22.1313    1.0000 </r>
       <r>  -22.1307    1.0000 </r>
       <r>  -20.7228    1.0000 </r>
       <r>  -20.7120    1.0000 </r>
       <r>  -20.7084    1.0000 </r>
       <r>  -20.3415    1.0000 </r>
       <r>  -20.3381    1.0000 </r>
       <r>  -20.3347    1.0000 </r>
       <r>  -19.0396    1.0000 </r>
       <r>  -19.0318    1.0000 </r>
       <r>  -18.9522    1.0000 </r>
       <r>  -18.2522    1.0000 </r>
       <r>  -18.2469    1.0000 </r>
       <r>  -18.0105    1.0000 </r>
       <r>  -17.9230    1.0000 </r>
       <r>  -17.9175    1.0000 </r>
       <r>  -17.9042    1.0000 </r>
       <r>  -17.8554    1.0000 </r>
       <r>  -17.8503    1.0000 </r>
       <r>  -17.6707    1.0000 </r>
       <r>  -17.5802    1.0000 </r>
       <r>  -17.5765    1.0000 </r>
       <r>  -16.8092    1.0000 </r>
       <r>  -16.8052    1.0000 </r>
       <r>  -16.6428    1.0000 </r>
       <r>  -15.8662    1.0000 </r>
       <r>  -15.4950    1.0000 </r>
       <r>  -15.4890    1.0000 </r>
       <r>  -15.0921    1.0000 </r>
       <r>  -15.0780    1.0000 </r>
       <r>  -15.0556    1.0000 </r>
       <r>  -14.7678    1.0000 </r>
       <r>  -14.7653    1.0000 </r>
       <r>  -14.7413    1.0000 </r>
       <r>  -14.7272    1.0000 </r>
       <r>  -14.4712    1.0000 </r>
       <r>  -14.4643    1.0000 </r>
       <r>  -14.2302    1.0000 </r>
       <r>  -13.7277    1.0000 </r>
       <r>  -13.7080    1.0000 </r>
       <r>  -13.7047    1.0000 </r>
       <r>  -13.6685    1.0000 </r>
       <r>  -13.5744    1.0000 </r>
       <r>  -13.5674    1.0000 </r>
       <r>  -12.8433    1.0000 </r>
       <r>  -12.8048    1.0000 </r>
       <r>  -12.8016    1.0000 </r>
       <r>  -12.7792    1.0000 </r>
       <r>  -12.7186    1.0000 </r>
       <r>  -12.7095    1.0000 </r>
       <r>  -12.6164    1.0000 </r>
       <r>  -12.5546    1.0000 </r>
       <r>  -12.5501    1.0000 </r>
       <r>  -12.3390    1.0000 </r>
       <r>  -12.3356    1.0000 </r>
       <r>  -12.2695    1.0000 </r>
       <r>  -11.8673    1.0000 </r>
       <r>  -11.7762    1.0000 </r>
       <r>  -11.7709    1.0000 </r>
       <r>  -11.4699    1.0000 </r>
       <r>  -11.4221    1.0000 </r>
       <r>  -11.2918    1.0000 </r>
       <r>  -11.2856    1.0000 </r>
       <r>  -11.2686    1.0000 </r>
       <r>  -11.2018    1.0000 </r>
       <r>  -11.1955    1.0000 </r>
       <r>  -11.1740    1.0000 </r>
       <r>  -11.1405    1.0000 </r>
       <r>  -10.9712    1.0000 </r>
       <r>  -10.8355    1.0000 </r>
       <r>  -10.8275    1.0000 </r>
       <r>  -10.6868    1.0000 </r>
       <r>  -10.6864    1.0000 </r>
       <r>  -10.5117    1.0000 </r>
       <r>  -10.3810    1.0000 </r>
       <r>  -10.2849    1.0000 </r>
       <r>  -10.2791    1.0000 </r>
       <r>  -10.2002    1.0000 </r>
       <r>  -10.1966    1.0000 </r>
       <r>  -10.1625    1.0000 </r>
       <r>  -10.0958    1.0000 </r>
       <r>  -10.0875    1.0000 </r>
       <r>  -10.0423    1.0000 </r>
       <r>  -10.0372    1.0000 </r>
       <r>  -10.0348    1.0000 </r>
       <r>   -9.6259    1.0000 </r>
       <r>   -9.6210    1.0000 </r>
       <r>   -9.6060    1.0000 </r>
       <r>   -9.4756    1.0000 </r>
       <r>   -9.3879    1.0000 </r>
       <r>   -9.3837    1.0000 </r>
       <r>   -9.3398    1.0000 </r>
       <r>   -9.2108    1.0000 </r>
       <r>   -9.2013    1.0000 </r>
       <r>   -9.1188    1.0000 </r>
       <r>   -9.1134    1.0000 </r>
       <r>   -8.9330    1.0000 </r>
       <r>   -8.9291    1.0000 </r>
       <r>   -8.7164    1.0000 </r>
       <r>   -8.6932    1.0000 </r>
       <r>   -8.6034    1.0000 </r>
       <r>   -8.5668    1.0000 </r>
       <r>   -8.5506    1.0000 </r>
       <r>   -8.5441    1.0000 </r>
       <r>   -8.3342    1.0000 </r>
       <r>   -8.2834    1.0000 </r>
       <r>   -8.2818    1.0000 </r>
       <r>   -8.1286    1.0000 </r>
       <r>   -8.1060    1.0000 </r>
       <r>   -8.0970    1.0000 </r>
       <r>   -7.9768    1.0000 </r>
       <r>   -7.9308    1.0000 </r>
       <r>   -7.9257    1.0000 </r>
       <r>   -7.7609    1.0000 </r>
       <r>   -7.7547    1.0000 </r>
       <r>   -7.2774    1.0000 </r>
       <r>   -7.1435    1.0000 </r>
       <r>   -7.0919    1.0000 </r>
       <r>   -7.0901    1.0000 </r>
       <r>   -7.0483    1.0000 </r>
       <r>   -7.0418    1.0000 </r>
       <r>   -6.4002    1.0000 </r>
       <r>   -6.3206    1.0000 </r>
       <r>   -6.3102    1.0000 </r>
       <r>   -6.2230    1.0000 </r>
       <r>   -6.1625    1.0000 </r>
       <r>   -6.1427    1.0000 </r>
       <r>   -5.9660    1.0000 </r>
       <r>   -5.9620    1.0000 </r>
       <r>   -5.8649    1.0000 </r>
       <r>   -5.8578    1.0000 </r>
       <r>   -5.5764    1.0000 </r>
       <r>   -5.5257    1.0000 </r>
       <r>   -5.5176    1.0000 </r>
       <r>   -5.4180    1.0000 </r>
       <r>   -5.3911    1.0000 </r>
       <r>   -5.3866    1.0000 </r>
       <r>   -4.8409    1.0000 </r>
       <r>   -4.8337    1.0000 </r>
       <r>   -4.8315    1.0000 </r>
       <r>   -4.7332    1.0000 </r>
       <r>   -4.7270    1.0000 </r>
       <r>   -4.7136    1.0000 </r>
       <r>   -3.2101    0.0000 </r>
       <r>   -3.2046    0.0000 </r>
       <r>   -3.0801    0.0000 </r>
       <r>   -3.0786    0.0000 </r>
       <r>   -2.2989    0.0000 </r>
       <r>   -2.1111    0.0000 </r>
       <r>   -1.0133    0.0000 </r>
       <r>   -1.0026    0.0000 </r>
       <r>   -0.9674    0.0000 </r>
       <r>   -0.9622    0.0000 </r>
       <r>   -0.9491    0.0000 </r>
       <r>   -0.7071    0.0000 </r>
       <r>   -0.6012    0.0000 </r>
       <r>   -0.5933    0.0000 </r>
       <r>   -0.4577    0.0000 </r>
       <r>   -0.4572    0.0000 </r>
       <r>   -0.4557    0.0000 </r>
       <r>   -0.4050    0.0000 </r>
       <r>   -0.4002    0.0000 </r>
       <r>   -0.3557    0.0000 </r>
       <r>   -0.0692    0.0000 </r>
       <r>   -0.0421    0.0000 </r>
       <r>   -0.0410    0.0000 </r>
       <r>    0.0239    0.0000 </r>
       <r>    0.0653    0.0000 </r>
       <r>    0.0713    0.0000 </r>
       <r>    0.0960    0.0000 </r>
       <r>    0.1512    0.0000 </r>
       <r>    0.3125    0.0000 </r>
       <r>    0.3146    0.0000 </r>
       <r>    0.3541    0.0000 </r>
       <r>    0.3706    0.0000 </r>
       <r>    0.3731    0.0000 </r>
       <r>    0.4281    0.0000 </r>
       <r>    0.4308    0.0000 </r>
       <r>    0.4432    0.0000 </r>
       <r>    0.4784    0.0000 </r>
       <r>    0.4836    0.0000 </r>
       <r>    0.4941    0.0000 </r>
       <r>    0.5233    0.0000 </r>
       <r>    0.6203    0.0000 </r>
       <r>    0.6267    0.0000 </r>
       <r>    0.6288    0.0000 </r>
       <r>    0.6840    0.0000 </r>
       <r>    0.6853    0.0000 </r>
       <r>    0.7173    0.0000 </r>
       <r>    0.7361    0.0000 </r>
       <r>    0.7367    0.0000 </r>
       <r>    0.7783    0.0000 </r>
       <r>    0.7926    0.0000 </r>
       <r>    0.7954    0.0000 </r>
       <r>    0.8225    0.0000 </r>
       <r>    0.8246    0.0000 </r>
       <r>    0.8691    0.0000 </r>
       <r>    0.8779    0.0000 </r>
       <r>    0.8829    0.0000 </r>
       <r>    0.8961    0.0000 </r>
       <r>    0.9689    0.0000 </r>
       <r>    0.9742    0.0000 </r>
       <r>    1.0320    0.0000 </r>
       <r>    1.0411    0.0000 </r>
       <r>    1.0434    0.0000 </r>
       <r>    1.0654    0.0000 </r>
       <r>    1.0698    0.0000 </r>
       <r>    1.1343    0.0000 </r>
      </set>
      <set comment="kpoint 2">
       <r>  -25.4296    1.0000 </r>
       <r>  -25.3386    1.0000 </r>
       <r>  -23.4246    1.0000 </r>
       <r>  -23.4186    1.0000 </r>
       <r>  -23.3273    1.0000 </r>
       <r>  -23.3227    1.0000 </r>
       <r>  -23.2634    1.0000 </r>
       <r>  -23.1618    1.0000 </r>
       <r>  -23.0359    1.0000 </r>
       <r>  -23.0275    1.0000 </r>
       <r>  -22.9730    1.0000 </r>
       <r>  -22.7119    1.0000 </r>
       <r>  -22.7065    1.0000 </r>
       <r>  -22.6878    1.0000 </r>
       <r>  -22.2195    1.0000 </r>
       <r>  -22.2181    1.0000 </r>
       <r>  -22.1313    1.0000 </r>
       <r>  -22.1307    1.0000 </r>
       <r>  -20.7228    1.0000 </r>
       <r>  -20.7120    1.0000 </r>
       <r>  -20.7084    1.0000 </r>
       <r>  -20.3415    1.0000 </r>
       <r>  -20.3381    1.0000 </r>
       <r>  -20.3347    1.0000 </r>
       <r>  -19.0396    1.0000 </r>
       <r>  -19.0317    1.0000 </r>
       <r>  -18.9523    1.0000 </r>
       <r>  -18.2520    1.0000 </r>
       <r>  -18.2468    1.0000 </r>
       <r>  -18.0109    1.0000 </r>
       <r>  -17.9230    1.0000 </r>
       <r>  -17.9175    1.0000 </r>
       <r>  -17.9042    1.0000 </r>
       <r>  -17.8554    1.0000 </r>
       <r>  -17.8503    1.0000 </r>
       <r>  -17.6733    1.0000 </r>
       <r>  -17.5786    1.0000 </r>
       <r>  -17.5750    1.0000 </r>
       <r>  -16.8122    1.0000 </r>
       <r>  -16.8059    1.0000 </r>
       <r>  -16.6391    1.0000 </r>
       <r>  -15.8678    1.0000 </r>
       <r>  -15.4945    1.0000 </r>
       <r>  -15.4882    1.0000 </r>
       <r>  -15.0921    1.0000 </r>
       <r>  -15.0780    1.0000 </r>
       <r>  -15.0556    1.0000 </r>
       <r>  -14.7689    1.0000 </r>
       <r>  -14.7654    1.0000 </r>
       <r>  -14.7412    1.0000 </r>
       <r>  -14.7270    1.0000 </r>
       <r>  -14.4710    1.0000 </r>
       <r>  -14.4638    1.0000 </r>
       <r>  -14.2304    1.0000 </r>
       <r>  -13.7277    1.0000 </r>
       <r>  -13.7081    1.0000 </r>
       <r>  -13.7048    1.0000 </r>
       <r>  -13.6684    1.0000 </r>
       <r>  -13.5744    1.0000 </r>
       <r>  -13.5674    1.0000 </r>
       <r>  -12.8437    1.0000 </r>
       <r>  -12.8048    1.0000 </r>
       <r>  -12.8014    1.0000 </r>
       <r>  -12.7794    1.0000 </r>
       <r>  -12.7181    1.0000 </r>
       <r>  -12.7092    1.0000 </r>
       <r>  -12.6166    1.0000 </r>
       <r>  -12.5546    1.0000 </r>
       <r>  -12.5502    1.0000 </r>
       <r>  -12.3390    1.0000 </r>
       <r>  -12.3355    1.0000 </r>
       <r>  -12.2695    1.0000 </r>
       <r>  -11.8672    1.0000 </r>
       <r>  -11.7763    1.0000 </r>
       <r>  -11.7710    1.0000 </r>
       <r>  -11.4698    1.0000 </r>
       <r>  -11.4221    1.0000 </r>
       <r>  -11.2918    1.0000 </r>
       <r>  -11.2856    1.0000 </r>
       <r>  -11.2686    1.0000 </r>
       <r>  -11.2020    1.0000 </r>
       <r>  -11.1961    1.0000 </r>
       <r>  -11.1731    1.0000 </r>
       <r>  -11.1405    1.0000 </r>
       <r>  -10.9715    1.0000 </r>
       <r>  -10.8353    1.0000 </r>
       <r>  -10.8274    1.0000 </r>
       <r>  -10.6871    1.0000 </r>
       <r>  -10.6865    1.0000 </r>
       <r>  -10.5115    1.0000 </r>
       <r>  -10.3810    1.0000 </r>
       <r>  -10.2848    1.0000 </r>
       <r>  -10.2791    1.0000 </r>
       <r>  -10.2003    1.0000 </r>
       <r>  -10.1966    1.0000 </r>
       <r>  -10.1625    1.0000 </r>
       <r>  -10.0958    1.0000 </r>
       <r>  -10.0875    1.0000 </r>
       <r>  -10.0423    1.0000 </r>
       <r>  -10.0372    1.0000 </r>
       <r>  -10.0348    1.0000 </r>
       <r>   -9.6259    1.0000 </r>
       <r>   -9.6210    1.0000 </r>
       <r>   -9.6060    1.0000 </r>
       <r>   -9.4757    1.0000 </r>
       <r>   -9.3881    1.0000 </r>
       <r>   -9.3839    1.0000 </r>
       <r>   -9.3394    1.0000 </r>
       <r>   -9.2108    1.0000 </r>
       <r>   -9.2014    1.0000 </r>
       <r>   -9.1187    1.0000 </r>
       <r>   -9.1133    1.0000 </r>
       <r>   -8.9331    1.0000 </r>
       <r>   -8.9294    1.0000 </r>
       <r>   -8.7161    1.0000 </r>
       <r>   -8.6931    1.0000 </r>
       <r>   -8.6034    1.0000 </r>
       <r>   -8.5672    1.0000 </r>
       <r>   -8.5504    1.0000 </r>
       <r>   -8.5438    1.0000 </r>
       <r>   -8.3352    1.0000 </r>
       <r>   -8.2828    1.0000 </r>
       <r>   -8.2814    1.0000 </r>
       <r>   -8.1287    1.0000 </r>
       <r>   -8.1060    1.0000 </r>
       <r>   -8.0970    1.0000 </r>
       <r>   -7.9775    1.0000 </r>
       <r>   -7.9304    1.0000 </r>
       <r>   -7.9253    1.0000 </r>
       <r>   -7.7609    1.0000 </r>
       <r>   -7.7548    1.0000 </r>
       <r>   -7.2773    1.0000 </r>
       <r>   -7.1438    1.0000 </r>
       <r>   -7.0917    1.0000 </r>
       <r>   -7.0901    1.0000 </r>
       <r>   -7.0483    1.0000 </r>
       <r>   -7.0418    1.0000 </r>
       <r>   -6.4002    1.0000 </r>
       <r>   -6.3206    1.0000 </r>
       <r>   -6.3103    1.0000 </r>
       <r>   -6.2230    1.0000 </r>
       <r>   -6.1625    1.0000 </r>
       <r>   -6.1427    1.0000 </r>
       <r>   -5.9660    1.0000 </r>
       <r>   -5.9619    1.0000 </r>
       <r>   -5.8649    1.0000 </r>
       <r>   -5.8578    1.0000 </r>
       <r>   -5.5763    1.0000 </r>
       <r>   -5.5257    1.0000 </r>
       <r>   -5.5176    1.0000 </r>
       <r>   -5.4179    1.0000 </r>
       <r>   -5.3911    1.0000 </r>
       <r>   -5.3866    1.0000 </r>
       <r>   -4.8409    1.0000 </r>
       <r>   -4.8337    1.0000 </r>
       <r>   -4.8315    1.0000 </r>
       <r>   -4.7332    1.0000 </r>
       <r>   -4.7270    1.0000 </r>
       <r>   -4.7136    1.0000 </r>
       <r>   -3.2100    0.0000 </r>
       <r>   -3.2045    0.0000 </r>
[...]
       <r>   -22.9592    61.5352    21.9948 </r>
       <r>   -22.8618     0.0000    22.0000 </r>
       <r>   -22.7644     0.0000    22.0000 </r>
       <r>   -22.6670    61.5955    27.9995 </r>
       <r>   -22.5696     0.0000    28.0000 </r>
       <r>   -22.4722     0.0000    28.0000 </r>
       <r>   -22.3748     0.0000    28.0000 </r>
       <r>   -22.2774     0.0000    28.0000 </r>
       <r>   -22.1800    41.0674    32.0000 </r>
       <r>   -22.0826    41.0674    36.0000 </r>
       <r>   -21.9852     0.0000    36.0000 </r>
       <r>   -21.8878     0.0000    36.0000 </r>
       <r>   -21.7904     0.0000    36.0000 </r>
       <r>   -21.6930     0.0000    36.0000 </r>
       <r>   -21.5956     0.0000    36.0000 </r>
       <r>   -21.4982     0.0000    36.0000 </r>
       <r>   -21.4008     0.0000    36.0000 </r>
       <r>   -21.3034     0.0000    36.0000 </r>
       <r>   -21.2060     0.0000    36.0000 </r>
       <r>   -21.1086     0.0000    36.0000 </r>
       <r>   -21.0112     0.0000    36.0000 </r>
       <r>   -20.9138     0.0000    36.0000 </r>
       <r>   -20.8164     0.0000    36.0000 </r>
       <r>   -20.7190    19.0676    37.8572 </r>
       <r>   -20.6216     0.0000    42.0000 </r>
       <r>   -20.5242     0.0000    42.0000 </r>
       <r>   -20.4268     0.0000    42.0000 </r>
       <r>   -20.3294    53.9918    47.2589 </r>
       <r>   -20.2319     0.0000    48.0000 </r>
       <r>   -20.1345     0.0000    48.0000 </r>
       <r>   -20.0371     0.0000    48.0000 </r>
       <r>   -19.9397     0.0000    48.0000 </r>
       <r>   -19.8423     0.0000    48.0000 </r>
       <r>   -19.7449     0.0000    48.0000 </r>
       <r>   -19.6475     0.0000    48.0000 </r>
       <r>   -19.5501     0.0000    48.0000 </r>
       <r>   -19.4527     0.0000    48.0000 </r>
       <r>   -19.3553     0.0000    48.0000 </r>
       <r>   -19.2579     0.0000    48.0000 </r>
       <r>   -19.1605     0.0000    48.0000 </r>
       <r>   -19.0631     0.0031    48.0003 </r>
       <r>   -18.9657    58.0551    53.6549 </r>
       <r>   -18.8683     0.0000    54.0000 </r>
       <r>   -18.7709     0.0000    54.0000 </r>
       <r>   -18.6735     0.0000    54.0000 </r>
       <r>   -18.5761     0.0000    54.0000 </r>
       <r>   -18.4787     0.0000    54.0000 </r>
       <r>   -18.3813     0.0000    54.0000 </r>
       <r>   -18.2839     0.0000    54.0000 </r>
       <r>   -18.1865    26.0882    56.5410 </r>
       <r>   -18.0891    18.6285    58.9818 </r>
       <r>   -17.9917     5.1293    59.9996 </r>
       <r>   -17.8943    59.9193    65.8362 </r>
       <r>   -17.7969    55.6938    71.4246 </r>
       <r>   -17.6995     2.9412    71.8533 </r>
       <r>   -17.6021     1.0356    72.0010 </r>
       <r>   -17.5047    22.7854    74.2203 </r>
       <r>   -17.4073     1.3468    74.3978 </r>
       <r>   -17.3099     3.7833    74.8018 </r>
       <r>   -17.2125     8.4594    76.0244 </r>
       <r>   -17.1151    10.6988    77.2421 </r>
       <r>   -17.0177     1.6020    77.5894 </r>
       <r>   -16.9203     1.2600    77.7395 </r>
       <r>   -16.8229     1.8014    77.9421 </r>
       <r>   -16.7255     0.3401    80.0000 </r>
       <r>   -16.6281     0.8515    80.0829 </r>
       <r>   -16.5307     1.2435    80.2544 </r>
       <r>   -16.4333     1.3688    80.4001 </r>
       <r>   -16.3359     1.6389    80.5930 </r>
       <r>   -16.2385     9.2195    81.8649 </r>
       <r>   -16.1411     7.0686    82.6885 </r>
       <r>   -16.0437     5.9440    83.5459 </r>
       <r>   -15.9463     1.6048    83.7230 </r>
       <r>   -15.8489     2.3917    83.9996 </r>
       <r>   -15.7515     0.0000    84.0000 </r>
       <r>   -15.6541     0.0000    84.0000 </r>
       <r>   -15.5567     0.0000    84.0000 </r>
       <r>   -15.4593    22.4129    86.1830 </r>
       <r>   -15.3619     2.0208    86.4302 </r>
       <r>   -15.2645    15.7402    87.9999 </r>
       <r>   -15.1671     0.0000    88.0000 </r>
       <r>   -15.0697    40.1605    91.9117 </r>
       <r>   -14.9723    13.8284    94.0000 </r>
       <r>   -14.8749    14.3289    95.3956 </r>
       <r>   -14.7775     5.7916    96.1308 </r>
       <r>   -14.6801    41.0674   102.0000 </r>
       <r>   -14.5827     0.0000   102.0000 </r>
       <r>   -14.4853     0.1228   102.0120 </r>
       <r>   -14.3879    17.3532   104.4769 </r>
       <r>   -14.2905    13.0839   106.0753 </r>
       <r>   -14.1931     8.5430   108.0000 </r>
       <r>   -14.0957     0.0000   108.0000 </r>
       <r>   -13.9983     0.0000   108.0000 </r>
       <r>   -13.9009     0.0000   108.0000 </r>
       <r>   -13.8035     0.0000   108.0000 </r>
       <r>   -13.7061    48.6808   112.7416 </r>
       <r>   -13.6087    20.5337   116.0000 </r>
       <r>   -13.5113    41.0673   120.0000 </r>
       <r>   -13.4139     0.0000   120.0000 </r>
       <r>   -13.3165     0.0000   120.0000 </r>
       <r>   -13.2191     0.0000   120.0000 </r>
       <r>   -13.1217     0.0000   120.0000 </r>
       <r>   -13.0243     0.0000   120.0000 </r>
       <r>   -12.9269     0.0000   120.0000 </r>
       <r>   -12.8295    25.3793   122.4720 </r>
       <r>   -12.7321    35.1244   127.6056 </r>
       <r>   -12.6347    42.7350   132.3295 </r>
       <r>   -12.5373    45.3420   137.9850 </r>
       <r>   -12.4399     0.0000   138.0000 </r>
       <r>   -12.3425    13.0980   139.2758 </r>
       <r>   -12.2451    20.5299   143.9996 </r>
       <r>   -12.1477     0.0000   144.0000 </r>
       <r>   -12.0503     0.0000   144.0000 </r>
       <r>   -11.9529     0.0000   144.0000 </r>
       <r>   -11.8555    11.8816   145.1573 </r>
       <r>   -11.7581    40.6120   149.9556 </r>
       <r>   -11.6607     0.0000   150.0000 </r>
       <r>   -11.5633     0.0000   150.0000 </r>
       <r>   -11.4659     2.6041   150.2536 </r>
       <r>   -11.3685    20.5337   154.0000 </r>
       <r>   -11.2711    43.1027   158.1982 </r>
       <r>   -11.1737    41.6426   164.0560 </r>
       <r>   -11.0763    35.7494   167.7158 </r>
       <r>   -10.9789    18.7918   169.8304 </r>
       <r>   -10.8815     0.0000   170.0000 </r>
       <r>   -10.7841    27.1314   172.6426 </r>
       <r>   -10.6867    40.2498   177.7048 </r>
       <r>   -10.5893     0.0000   178.0000 </r>
       <r>   -10.4919     9.5464   178.9298 </r>
       <r>   -10.3945     6.7701   180.6594 </r>
       <r>   -10.2971     1.7438   182.1699 </r>
       <r>   -10.1997    41.7231   188.0652 </r>
       <r>   -10.1023    25.0068   192.4357 </r>
       <r>   -10.0049    61.6007   202.0000 </r>
       <r>    -9.9074     0.0000   202.0000 </r>
       <r>    -9.8100     0.0000   202.0000 </r>
       <r>    -9.7126     0.0000   202.0000 </r>
       <r>    -9.6152    28.8262   204.8077 </r>
       <r>    -9.5178     0.0208   208.0020 </r>
       <r>    -9.4204    20.9757   210.0451 </r>
       <r>    -9.3230    27.5516   214.2676 </r>
       <r>    -9.2256    25.6694   216.9506 </r>
       <r>    -9.1282    21.6069   220.1052 </r>
       <r>    -9.0308    18.8201   224.0000 </r>
       <r>    -8.9334    27.5735   226.6857 </r>
       <r>    -8.8360     0.0000   228.0000 </r>
       <r>    -8.7386     0.0008   228.0001 </r>
       <r>    -8.6412    40.6650   231.9609 </r>
       <r>    -8.5438    56.6600   237.5188 </r>
       <r>    -8.4464    17.4564   240.0004 </r>
       <r>    -8.3490    18.9089   241.8422 </r>
       <r>    -8.2516    23.1759   244.2574 </r>
       <r>    -8.1542    25.2707   246.8281 </r>
       <r>    -8.0568    44.4888   252.0002 </r>
       <r>    -7.9594    20.5264   253.9995 </r>
       <r>    -7.8620    25.8367   256.5165 </r>
       <r>    -7.7646    29.4708   260.1378 </r>
       <r>    -7.6672     0.0000   262.0000 </r>
       <r>    -7.5698     0.0000   262.0000 </r>
       <r>    -7.4724     0.0000   262.0000 </r>
       <r>    -7.3750     0.0000   262.0000 </r>
       <r>    -7.2776     1.0184   262.0992 </r>
       <r>    -7.1802    30.1055   265.3324 </r>
       <r>    -7.0828    24.3782   268.0414 </r>
       <r>    -6.9854    41.0671   274.0000 </r>
       <r>    -6.8880     0.0000   274.0000 </r>
       <r>    -6.7906     0.0000   274.0000 </r>
       <r>    -6.6932     0.0000   274.0000 </r>
       <r>    -6.5958     0.0000   274.0000 </r>
       <r>    -6.4984     0.0000   274.0000 </r>
       <r>    -6.4010     3.4744   274.3384 </r>
       <r>    -6.3036    39.2753   279.8254 </r>
       <r>    -6.2062    17.9193   281.7454 </r>
       <r>    -6.1088    41.0674   286.0000 </r>
       <r>    -6.0114     0.0000   286.0000 </r>
       <r>    -5.9140    41.0674   290.0000 </r>
       <r>    -5.8166    41.0674   294.0000 </r>
       <r>    -5.7192     0.0000   294.0000 </r>
       <r>    -5.6218     0.0000   294.0000 </r>
       <r>    -5.5244    44.8600   298.3694 </r>
       <r>    -5.4270     0.5495   300.0535 </r>
       <r>    -5.3296    41.0673   306.0000 </r>
       <r>    -5.2322     0.0000   306.0000 </r>
       <r>    -5.1348     0.0000   306.0000 </r>
       <r>    -5.0374     0.0000   306.0000 </r>
       <r>    -4.9400     0.0000   306.0000 </r>
       <r>    -4.8426    11.6812   307.1378 </r>
       <r>    -4.7452     0.7011   312.0683 </r>
       <r>    -4.6478    40.3203   318.0000 </r>
       <r>    -4.5504     0.0000   318.0000 </r>
       <r>    -4.4530     0.0000   318.0000 </r>
       <r>    -4.3556     0.0000   318.0000 </r>
       <r>    -4.2582     0.0000   318.0000 </r>
       <r>    -4.1608     0.0000   318.0000 </r>
       <r>    -4.0634     0.0000   318.0000 </r>
       <r>    -3.9660     0.0000   318.0000 </r>
       <r>    -3.8686     0.0000   318.0000 </r>
       <r>    -3.7712     0.0000   318.0000 </r>
       <r>    -3.6738     0.0000   318.0000 </r>
       <r>    -3.5764     0.0000   318.0000 </r>
       <r>    -3.4790     0.0000   318.0000 </r>
       <r>    -3.3816     0.0000   318.0000 </r>
       <r>    -3.2842     0.0000   318.0000 </r>
       <r>    -3.1868    33.8847   321.3004 </r>
       <r>    -3.0894    18.7242   323.8238 </r>
       <r>    -2.9920     0.0000   326.0000 </r>
       <r>    -2.8946     0.0000   326.0000 </r>
       <r>    -2.7972     0.0000   326.0000 </r>
       <r>    -2.6998     0.0000   326.0000 </r>
       <r>    -2.6024     0.0000   326.0000 </r>
       <r>    -2.5050     0.0000   326.0000 </r>
       <r>    -2.4076     0.0000   326.0000 </r>
       <r>    -2.3102     0.0652   326.0064 </r>
       <r>    -2.2128    18.2411   327.9436 </r>
       <r>    -2.1154    19.1929   329.8698 </r>
       <r>    -2.0180     0.0000   330.0000 </r>
       <r>    -1.9206     0.0000   330.0000 </r>
       <r>    -1.8232     0.0000   330.0000 </r>
       <r>    -1.7258     0.0000   330.0000 </r>
       <r>    -1.6284     0.0000   330.0000 </r>
       <r>    -1.5310     0.0000   330.0000 </r>
       <r>    -1.4336     0.0000   330.0000 </r>
       <r>    -1.3362     0.0000   330.0000 </r>
       <r>    -1.2388     0.0000   330.0000 </r>
       <r>    -1.1414     0.0000   330.0000 </r>
       <r>    -1.0440     0.0000   330.0000 </r>
       <r>    -0.9466    83.1312   338.0971 </r>
       <r>    -0.8492    17.0013   339.9894 </r>
       <r>    -0.7518    16.6306   341.6200 </r>
       <r>    -0.6544     3.0791   342.0000 </r>
       <r>    -0.5570    41.0701   346.0003 </r>
       <r>    -0.4596    27.5705   348.6857 </r>
       <r>    -0.3622    56.9126   356.0122 </r>
       <r>    -0.2648     2.9212   356.3847 </r>
       <r>    -0.1674    16.0827   357.9999 </r>
       <r>    -0.0700    18.1767   359.7704 </r>
       <r>     0.0274    45.3178   364.4157 </r>
       <r>     0.1248    58.3488   372.4530 </r>
       <r>     0.2222    14.2199   375.1187 </r>
       <r>     0.3197    24.5182   377.9382 </r>
       <r>     0.4171    54.6970   383.3289 </r>
       <r>     0.5145    76.3358   392.8708 </r>
       <r>     0.6119    70.3565   400.6701 </r>
       <r>     0.7093    87.0637   410.9485 </r>
       <r>     0.8067    71.5889   419.0899 </r>
       <r>     0.9041    88.1749   428.6567 </r>
       <r>     1.0015    75.8529   437.4568 </r>
       <r>     1.0989    78.5739   447.5216 </r>
       <r>     1.1963     1.3684   448.0000 </r>
       <r>     1.2937     0.0000   448.0000 </r>
       <r>     1.3911     0.0000   448.0000 </r>
       <r>     1.4885     0.0000   448.0000 </r>
       <r>     1.5859     0.0000   448.0000 </r>
       <r>     1.6833     0.0000   448.0000 </r>
       <r>     1.7807     0.0000   448.0000 </r>
       <r>     1.8781     0.0000   448.0000 </r>
       <r>     1.9755     0.0000   448.0000 </r>
       <r>     2.0729     0.0000   448.0000 </r>
       <r>     2.1703     0.0000   448.0000 </r>
       <r>     2.2677     0.0000   448.0000 </r>
       <r>     2.3651     0.0000   448.0000 </r>
       <r>     2.4625     0.0000   448.0000 </r>
      </set>
     </set>
    </array>
   </total>
  </dos>
 </calculation>
 <structure name="finalpos" >
  <crystal>
   <varray name="basis" >
    <v>      29.34980957       0.07052449       0.00000000 </v>
    <v>     -14.61405634      25.52956080       0.00000000 </v>
    <v>       0.00000000       0.00000000      20.00000000 </v>
   </varray>
   <i name="volume">  15006.36793326 </i>
   <varray name="rec_basis" >
    <v>       0.03402497       0.01947714       0.00000000 </v>
    <v>      -0.00009399       0.03911647       0.00000000 </v>
    <v>       0.00000000       0.00000000       0.05000000 </v>
   </varray>
  </crystal>
  <varray name="positions" >
   <v>       0.30183320       0.61399110       0.49063334 </v>
   <v>       0.30970682       0.69889721       0.49247554 </v>
   <v>       0.38674754       0.69049344       0.49062881 </v>
   <v>       0.69722500       0.38610757       0.51452916 </v>
   <v>       0.68935584       0.30117974       0.51271475 </v>
   <v>       0.61238395       0.30966077       0.51315695 </v>
   <v>       0.46657141       0.04038345       0.59958886 </v>
   <v>       0.61915567       0.19205729       0.50530583 </v>
   <v>       0.57342762       0.53432142       0.59709983 </v>
   <v>       0.57290218       0.37996089       0.50709976 </v>
   <v>       0.96004268       0.42446211       0.59821555 </v>
   <v>       0.80644028       0.42510901       0.50687007 </v>
   <v>       0.40700450       0.98064526       0.46674736 </v>
   <v>       0.38015930       0.80788507       0.50267296 </v>
   <v>       0.57116664       0.59130753       0.46315014 </v>
   <v>       0.42555788       0.61959690       0.49988384 </v>
   <v>       0.02191948       0.42753077       0.46841484 </v>
   <v>       0.19278841       0.57545271       0.50180793 </v>
   <v>       0.35448710       0.63826058       0.49054735 </v>
   <v>       0.28163937       0.64636599       0.49195943 </v>
   <v>       0.36210148       0.71873222       0.49192537 </v>
   <v>       0.39725877       0.77593739       0.49223980 </v>
   <v>       0.37662455       0.60283518       0.49005350 </v>
   <v>       0.22423252       0.62439034       0.49246256 </v>
   <v>       0.64456677       0.36186683       0.51380267 </v>
   <v>       0.71738773       0.35372269       0.51336669 </v>
   <v>       0.63697242       0.28138237       0.51250505 </v>
   <v>       0.60181264       0.22418587       0.51160469 </v>
   <v>       0.62225038       0.39712884       0.51345353 </v>
   <v>       0.77479042       0.37582823       0.51258946 </v>
   <v>       0.58420532       0.13822388       0.50798222 </v>
   <v>       0.54172064       0.11604179       0.55255702 </v>
   <v>       0.50764636       0.06172962       0.55461793 </v>
   <v>       0.51550094       0.02910245       0.50896218 </v>
   <v>       0.48016995       0.97159515       0.50861764 </v>
   <v>       0.49882604       0.93805530       0.52898728 </v>
   <v>       0.46759148       0.88393241       0.52790277 </v>
   <v>       0.55368016       0.41499448       0.50921419 </v>
   <v>       0.57395661       0.45816022       0.55255544 </v>
   <v>       0.55346932       0.49237544       0.55354030 </v>
   <v>       0.51254774       0.48380589       0.50819611 </v>
   <v>       0.48997048       0.51915153       0.50688784 </v>
   <v>       0.43808651       0.50102867       0.52772845 </v>
   <v>       0.41495213       0.53238590       0.52613035 </v>
   <v>       0.86053894       0.44425159       0.50907992 </v>
   <v>       0.88354359       0.42394997       0.55261112 </v>
   <v>       0.93811251       0.44449911       0.55424665 </v>
   <v>       0.97026143       0.48552338       0.50929603 </v>
   <v>       0.02808458       0.50866859       0.50875682 </v>
   <v>       0.06052437       0.56101831       0.52807863 </v>
   <v>       0.11489673       0.58499420       0.52669255 </v>
   <v>       0.55892645       0.05213961       0.46582828 </v>
   <v>       0.59373731       0.10567576       0.46548846 </v>
   <v>       0.41526470       0.86178618       0.50562344 </v>
   <v>       0.39551219       0.89453453       0.48654573 </v>
   <v>       0.42731321       0.94920864       0.48640590 </v>
   <v>       0.49218728       0.43970051       0.46636335 </v>
   <v>       0.51129743       0.40488214       0.46701204 </v>
   <v>       0.44455435       0.58432447       0.50286619 </v>
   <v>       0.49670042       0.60351021       0.48308729 </v>
   <v>       0.51978661       0.57155445       0.48343700 </v>
   <v>       0.94634511       0.50578595       0.46705921 </v>
   <v>       0.89253850       0.48661762       0.46707769 </v>
   <v>       0.13856163       0.55586571       0.50502686 </v>
   <v>       0.10696065       0.50333579       0.48684816 </v>
   <v>       0.05201427       0.47930164       0.48715037 </v>
   <v>       0.21171384       0.65370126       0.48444579 </v>
   <v>       0.34730118       0.56145514       0.48115526 </v>
   <v>       0.43878082       0.78797287       0.48302369 </v>
   <v>       0.78747933       0.34627102       0.51532406 </v>
   <v>       0.65183471       0.43900695       0.51700128 </v>
   <v>       0.55978544       0.21205354       0.51510966 </v>
   <v>       0.53917103       0.95572657       0.54691157 </v>
   <v>       0.48282403       0.85910484       0.54598622 </v>
   <v>       0.53625055       0.14118684       0.58799910 </v>
   <v>       0.46853094       0.06207228       0.63987875 </v>
   <v>       0.44886922       0.00127069       0.60757450 </v>
   <v>       0.41589297       0.46104181       0.54658135 </v>
   <v>       0.37517686       0.51760652       0.54469782 </v>
   <v>       0.60490536       0.46422853       0.58779032 </v>
   <v>       0.59335604       0.53287751       0.63757846 </v>
   <v>       0.55187396       0.55219128       0.60460061 </v>
   <v>       0.04170906       0.58290779       0.54545667 </v>
   <v>       0.13876382       0.62512306       0.54412139 </v>
   <v>       0.85880597       0.39298989       0.58763220 </v>
   <v>       0.93857693       0.40471716       0.63859106 </v>
   <v>       0.99921036       0.44596923       0.60627524 </v>
   <v>       0.56501018       0.02664117       0.43174881 </v>
   <v>       0.62742776       0.12326312       0.43206386 </v>
   <v>       0.35467823       0.87632499       0.47044741 </v>
   <v>       0.43292979       0.01857002       0.45622896 </v>
   <v>       0.37441364       0.96423808       0.43789769 </v>
   <v>       0.46028554       0.43305894       0.43253908 </v>
   <v>       0.49522088       0.37064650       0.43461692 </v>
   <v>       0.51888884       0.64402590       0.46611830 </v>
   <v>       0.58329185       0.56518538       0.45311390 </v>
   <v>       0.58691227       0.62348712       0.43369259 </v>
   <v>       0.97140718       0.53764027       0.43335618 </v>
   <v>       0.87430366       0.50257833       0.43426164 </v>
   <v>       0.12629854       0.48154992       0.47112823 </v>
   <v>       0.98353689       0.41431585       0.45828789 </v>
   <v>       0.03919480       0.41192374       0.43987492 </v>
  </varray>
 </structure>
</modeling>
