<?xml version="1.0" encoding="ISO-8859-1"?>
<modeling>
 <generator>
  <i name="program" type="string">vasp </i>
  <i name="version" type="string">5.4.4.18Apr17-6-g9f103f2a35  </i>
  <i name="subversion" type="string">(build Jun 07 2020 16:50:00) complex            parallel </i>
  <i name="platform" type="string">LinuxIFC </i>
  <i name="date" type="string">2023 02 14 </i>
  <i name="time" type="string">23:26:23 </i>
 </generator>
 <incar>
  <i type="string" name="SYSTEM">Simulation for cell shape cell volume r</i>
  <i type="int" name="ISTART">     1</i>
  <i type="string" name="PREC">high</i>
  <i type="string" name="ALGO">48</i>
  <i type="int" name="ICHARG">    11</i>
  <i type="int" name="NELM">   200</i>
  <i type="int" name="IBRION">    -1</i>
  <i name="EDIFF">      0.00001000</i>
  <i name="EDIFFG">     -0.01000000</i>
  <i type="int" name="NSW">     0</i>
  <i type="int" name="ISIF">     2</i>
  <i name="ENCUT">    500.00000000</i>
  <i name="POTIM">      0.30000000</i>
  <i type="string" name="LREAL">A</i>
  <i type="int" name="ISMEAR">     0</i>
  <i name="SIGMA">      0.01000000</i>
  <i type="int" name="NWRITE">     0</i>
  <i type="logical" name="LWAVE"> F  </i>
  <i type="logical" name="LCHARG"> F  </i>
  <v type="int" name="KPOINT_BSE">    -1     0     0     0</v>
  <i type="int" name="NELM">   200</i>
  <i type="string" name="GGA">PE</i>
 </incar>
 <structure name="primitive_cell" >
  <crystal>
   <varray name="basis" >
    <v>      30.38015135      -0.00178519       0.00000000 </v>
    <v>     -15.19162091      26.31924263       0.00000000 </v>
    <v>       0.00000000       0.00000000      20.00000000 </v>
   </varray>
   <i name="volume">  15991.10909325 </i>
   <varray name="rec_basis" >
    <v>       0.03291734       0.01900008       0.00000000 </v>
    <v>       0.00000223       0.03799630       0.00000000 </v>
    <v>       0.00000000       0.00000000       0.05000000 </v>
   </varray>
  </crystal>
  <varray name="positions" >
   <v>      -0.36212129       0.12868370      -0.48283445 </v>
   <v>      -0.38254996       0.14970393      -0.48415096 </v>
   <v>      -0.35585341       0.20279106      -0.48469551 </v>
   <v>      -0.43588656       0.12328567      -0.48448440 </v>
   <v>      -0.46422849       0.06665762      -0.48423264 </v>
   <v>      -0.29953325       0.23653546      -0.48456360 </v>
   <v>      -0.47637848       0.04273905      -0.42482094 </v>
   <v>      -0.38313093       0.22868627      -0.48567924 </v>
   <v>      -0.46275695       0.14974117      -0.48533800 </v>
   <v>      -0.47794072       0.03894517       0.45575272 </v>
   <v>      -0.46807282       0.05859463       0.40757606 </v>
   <v>      -0.27654472       0.25517963      -0.42563759 </v>
   <v>      -0.28706781       0.23837628       0.40746551 </v>
   <v>      -0.27252098       0.25710919       0.45561187 </v>
   <v>      -0.43631439       0.20282710      -0.48590748 </v>
   <v>      -0.36236886       0.27016912      -0.48612108 </v>
   <v>       0.49577570       0.12873458      -0.48553855 </v>
   <v>       0.49820748      -0.00809960      -0.42635810 </v>
   <v>       0.49667114      -0.01189799       0.45418820 </v>
   <v>      -0.23137161       0.29791814      -0.42622616 </v>
   <v>       0.48458246      -0.03581517      -0.48636894 </v>
   <v>      -0.22980029       0.30229230       0.45502399 </v>
   <v>       0.48818084      -0.02774231      -0.37817330 </v>
   <v>      -0.45886112       0.23658526      -0.48587871 </v>
   <v>      -0.21097000       0.32510814      -0.48599615 </v>
   <v>      -0.21254059       0.31234251      -0.37811313 </v>
   <v>      -0.47528495      -0.09781656      -0.48752338 </v>
   <v>      -0.46931177       0.23821966      -0.37783609 </v>
   <v>      -0.46328915       0.25533218       0.45531004 </v>
   <v>       0.45633231      -0.09244697      -0.48591763 </v>
   <v>      -0.46525433       0.25701684      -0.42588402 </v>
   <v>       0.48326207      -0.11885166      -0.48606046 </v>
   <v>      -0.24454729       0.38799515      -0.48554887 </v>
   <v>      -0.17717770       0.38141794      -0.48568620 </v>
   <v>       0.40299998      -0.11893906      -0.48486911 </v>
   <v>      -0.46574370       0.29806248       0.45620683 </v>
   <v>       0.38251508      -0.09796352      -0.48468778 </v>
   <v>      -0.46284656       0.30216008      -0.42505344 </v>
   <v>      -0.20304837       0.40872298      -0.48522191 </v>
   <v>      -0.45889687       0.32511883      -0.48389787 </v>
   <v>      -0.10304407       0.38765647      -0.48564383 </v>
   <v>      -0.36239326       0.38792368      -0.48477227 </v>
   <v>      -0.12406538       0.40809699      -0.48522731 </v>
   <v>       0.45688614      -0.17194181      -0.48514635 </v>
   <v>      -0.47026777       0.31254452       0.40820265 </v>
   <v>       0.37635160      -0.17202798      -0.48406247 </v>
   <v>      -0.17714947       0.46188857      -0.48417575 </v>
   <v>       0.47955394      -0.20561144      -0.48528717 </v>
   <v>      -0.38311705       0.40869572      -0.48446908 </v>
   <v>       0.40369821      -0.19786530      -0.48408768 </v>
   <v>      -0.43630609       0.38144773      -0.48384924 </v>
   <v>       0.49114824      -0.20697957      -0.37746905 </v>
   <v>      -0.09760508       0.46141795      -0.48418434 </v>
   <v>      -0.21089104       0.48445049      -0.48375129 </v>
   <v>       0.48354156      -0.22444366       0.45574394 </v>
   <v>       0.48657121      -0.22588573      -0.42556689 </v>
   <v>      -0.12405178       0.48830114      -0.48367998 </v>
   <v>      -0.22966620       0.48833519      -0.42468480 </v>
   <v>      -0.23130198       0.49139771       0.45660870 </v>
   <v>       0.32001772      -0.20575123      -0.48397055 </v>
   <v>       0.38299383      -0.23934918      -0.48346002 </v>
   <v>      -0.21246769       0.49599473       0.40844602 </v>
   <v>      -0.27648065       0.48896493       0.45618097 </v>
   <v>      -0.27242175       0.49074998      -0.42507251 </v>
   <v>      -0.29947217       0.48441712      -0.48484319 </v>
   <v>      -0.35577791       0.46186473      -0.48467945 </v>
   <v>       0.30761130      -0.20738799       0.40804016 </v>
   <v>      -0.46267669       0.40818461      -0.48342883 </v>
   <v>      -0.28696621       0.49481329      -0.37686657 </v>
   <v>      -0.04095652       0.48976626      -0.48396122 </v>
   <v>       0.48604250      -0.26712743       0.45628089 </v>
   <v>       0.29695727      -0.22443847      -0.42507682 </v>
   <v>       0.48424027      -0.27101777      -0.42496507 </v>
   <v>      -0.10303760      -0.47026041      -0.48226616 </v>
   <v>       0.29300498      -0.22617222       0.45613488 </v>
   <v>       0.49586280       0.38778429      -0.48239977 </v>
   <v>      -0.03294116       0.49325573       0.40784131 </v>
   <v>      -0.01697190      -0.49788879      -0.42458725 </v>
   <v>      -0.01326708      -0.49665062       0.45601222 </v>
   <v>       0.49018688      -0.28169077       0.40813580 </v>
   <v>       0.47970560      -0.29409485      -0.48386459 </v>
   <v>      -0.38240238       0.48832973      -0.48423497 </v>
   <v>      -0.43573223       0.46151347      -0.48349235 </v>
   <v>       0.25175041      -0.26712936      -0.42580846 </v>
   <v>       0.25021381      -0.27129891       0.45542035 </v>
   <v>       0.03387395      -0.47249460      -0.42614157 </v>
   <v>      -0.36191032      -0.47021483      -0.48451339 </v>
   <v>       0.03759094      -0.47112737       0.45444888 </v>
   <v>       0.23283610      -0.28157200      -0.37773759 </v>
   <v>       0.23138552      -0.29421382      -0.48564494 </v>
   <v>       0.05354151      -0.46248876      -0.37797038 </v>
   <v>       0.06156178      -0.45890401      -0.48617146 </v>
   <v>       0.45707887      -0.35040284      -0.48398879 </v>
   <v>       0.38316091      -0.35690242      -0.48390558 </v>
   <v>      -0.46390909       0.48997313      -0.48325703 </v>
   <v>      -0.46799451       0.49376993       0.40853459 </v>
   <v>       0.40388837      -0.37766803      -0.48430921 </v>
   <v>      -0.47506789      -0.35668774      -0.48404806 </v>
   <v>       0.12371529      -0.49884605      -0.48471990 </v>
   <v>       0.26513500      -0.35696676      -0.48390957 </v>
   <v>      -0.47561303      -0.49770830      -0.42389522 </v>
   <v>      -0.47780375      -0.49630257       0.45665880 </v>
   <v>       0.48346997      -0.37710326      -0.48445220 </v>
   <v>       0.19769409      -0.35052247      -0.48550236 </v>
   <v>       0.11820268      -0.43056334      -0.48589391 </v>
   <v>       0.22363933      -0.37775166      -0.48443768 </v>
   <v>       0.14470226      -0.45739116      -0.48494730 </v>
   <v>       0.37656026      -0.43083784      -0.48529698 </v>
   <v>       0.49896584      -0.47228045      -0.42558586 </v>
   <v>       0.49682851      -0.47082398       0.45497325 </v>
   <v>       0.45657027      -0.43041623      -0.48550048 </v>
   <v>       0.14459543      -0.37724592      -0.48613457 </v>
   <v>       0.12354954      -0.35684284      -0.48745312 </v>
   <v>       0.32022748      -0.45339808      -0.48528990 </v>
   <v>       0.48928955      -0.46221211      -0.37746819 </v>
   <v>       0.48492887      -0.45869956      -0.48567675 </v>
   <v>       0.19780809      -0.43092333      -0.48421758 </v>
   <v>       0.40322928      -0.45727077      -0.48595510 </v>
   <v>       0.29713405      -0.45792862       0.45582999 </v>
   <v>       0.29326398      -0.45972934      -0.42543997 </v>
   <v>       0.23161831      -0.45343051      -0.48383868 </v>
   <v>       0.25049907      -0.45732691      -0.42485100 </v>
   <v>       0.30785682      -0.46385002      -0.37729286 </v>
   <v>       0.25195276      -0.46036020       0.45642160 </v>
   <v>       0.23304099      -0.46488458       0.40833670 </v>
   <v>       0.38276556      -0.49871059      -0.48738719 </v>
  </varray>
 </structure>
 <varray name="primitive_index" >
  <v type="int" >        1 </v>
  <v type="int" >       37 </v>
  <v type="int" >       44 </v>
  <v type="int" >       38 </v>
  <v type="int" >       40 </v>
  <v type="int" >       47 </v>
  <v type="int" >      109 </v>
  <v type="int" >       43 </v>
  <v type="int" >       39 </v>
  <v type="int" >       41 </v>
  <v type="int" >        3 </v>
  <v type="int" >      110 </v>
  <v type="int" >        6 </v>
  <v type="int" >       48 </v>
  <v type="int" >       42 </v>
  <v type="int" >        4 </v>
  <v type="int" >        2 </v>
  <v type="int" >       83 </v>
  <v type="int" >      120 </v>
  <v type="int" >       51 </v>
  <v type="int" >       98 </v>
  <v type="int" >      113 </v>
  <v type="int" >       24 </v>
  <v type="int" >       45 </v>
  <v type="int" >       50 </v>
  <v type="int" >        7 </v>
  <v type="int" >       16 </v>
  <v type="int" >        5 </v>
  <v type="int" >      111 </v>
  <v type="int" >       69 </v>
  <v type="int" >       46 </v>
  <v type="int" >       70 </v>
  <v type="int" >       14 </v>
  <v type="int" >       59 </v>
  <v type="int" >       68 </v>
  <v type="int" >       52 </v>
  <v type="int" >       15 </v>
  <v type="int" >      112 </v>
  <v type="int" >       60 </v>
  <v type="int" >       49 </v>
  <v type="int" >       13 </v>
  <v type="int" >       11 </v>
  <v type="int" >       64 </v>
  <v type="int" >       65 </v>
  <v type="int" >        8 </v>
  <v type="int" >       67 </v>
  <v type="int" >       61 </v>
  <v type="int" >       89 </v>
  <v type="int" >       54 </v>
  <v type="int" >       66 </v>
  <v type="int" >       55 </v>
  <v type="int" >       28 </v>
  <v type="int" >       63 </v>
  <v type="int" >       88 </v>
  <v type="int" >      124 </v>
  <v type="int" >       90 </v>
  <v type="int" >       62 </v>
  <v type="int" >      116 </v>
  <v type="int" >      105 </v>
  <v type="int" >       97 </v>
  <v type="int" >       17 </v>
  <v type="int" >       33 </v>
  <v type="int" >      123 </v>
  <v type="int" >       87 </v>
  <v type="int" >       86 </v>
  <v type="int" >       53 </v>
  <v type="int" >       36 </v>
  <v type="int" >       56 </v>
  <v type="int" >       27 </v>
  <v type="int" >      102 </v>
  <v type="int" >      106 </v>
  <v type="int" >      119 </v>
  <v type="int" >      117 </v>
  <v type="int" >       12 </v>
  <v type="int" >      108 </v>
  <v type="int" >        9 </v>
  <v type="int" >       32 </v>
  <v type="int" >      115 </v>
  <v type="int" >      103 </v>
  <v type="int" >       34 </v>
  <v type="int" >       91 </v>
  <v type="int" >       58 </v>
  <v type="int" >       57 </v>
  <v type="int" >       96 </v>
  <v type="int" >      126 </v>
  <v type="int" >       85 </v>
  <v type="int" >       10 </v>
  <v type="int" >      122 </v>
  <v type="int" >       30 </v>
  <v type="int" >       95 </v>
  <v type="int" >       26 </v>
  <v type="int" >      104 </v>
  <v type="int" >       73 </v>
  <v type="int" >       20 </v>
  <v type="int" >       99 </v>
  <v type="int" >       31 </v>
  <v type="int" >       72 </v>
  <v type="int" >       18 </v>
  <v type="int" >       21 </v>
  <v type="int" >       23 </v>
  <v type="int" >      114 </v>
  <v type="int" >      100 </v>
  <v type="int" >       74 </v>
  <v type="int" >       77 </v>
  <v type="int" >       81 </v>
  <v type="int" >       78 </v>
  <v type="int" >       80 </v>
  <v type="int" >       71 </v>
  <v type="int" >       84 </v>
  <v type="int" >      121 </v>
  <v type="int" >       75 </v>
  <v type="int" >       82 </v>
  <v type="int" >       22 </v>
  <v type="int" >       92 </v>
  <v type="int" >       25 </v>
  <v type="int" >      101 </v>
  <v type="int" >       79 </v>
  <v type="int" >       76 </v>
  <v type="int" >      125 </v>
  <v type="int" >       93 </v>
  <v type="int" >       94 </v>
  <v type="int" >      118 </v>
  <v type="int" >       29 </v>
  <v type="int" >      107 </v>
  <v type="int" >       35 </v>
  <v type="int" >       19 </v>
 </varray>
 <kpoints>
  <generation param="listgenerated">
   <i name="divisions" type="int">      20 </i>
   <v>       0.00000000       0.00000000       0.00000000 </v>
   <v>       0.50000000       0.00000000       0.00000000 </v>
   <v>       0.33333333       0.33333333       0.00000000 </v>
   <v>       0.00000000       0.00000000       0.00000000 </v>
  </generation>
  <varray name="kpointlist" >
   <v>       0.00000000       0.00000000       0.00000000 </v>
   <v>       0.02631579       0.00000000       0.00000000 </v>
   <v>       0.05263158       0.00000000       0.00000000 </v>
   <v>       0.07894737       0.00000000       0.00000000 </v>
   <v>       0.10526316       0.00000000       0.00000000 </v>
   <v>       0.13157895       0.00000000       0.00000000 </v>
   <v>       0.15789474       0.00000000       0.00000000 </v>
   <v>       0.18421053       0.00000000       0.00000000 </v>
   <v>       0.21052632       0.00000000       0.00000000 </v>
   <v>       0.23684211       0.00000000       0.00000000 </v>
   <v>       0.26315789       0.00000000       0.00000000 </v>
   <v>       0.28947368       0.00000000       0.00000000 </v>
   <v>       0.31578947       0.00000000       0.00000000 </v>
   <v>       0.34210526       0.00000000       0.00000000 </v>
   <v>       0.36842105       0.00000000       0.00000000 </v>
   <v>       0.39473684       0.00000000       0.00000000 </v>
   <v>       0.42105263       0.00000000       0.00000000 </v>
   <v>       0.44736842       0.00000000       0.00000000 </v>
   <v>       0.47368421       0.00000000       0.00000000 </v>
   <v>       0.50000000       0.00000000       0.00000000 </v>
   <v>       0.50000000       0.00000000       0.00000000 </v>
   <v>       0.49122807       0.01754386       0.00000000 </v>
   <v>       0.48245614       0.03508772       0.00000000 </v>
   <v>       0.47368421       0.05263158       0.00000000 </v>
   <v>       0.46491228       0.07017544       0.00000000 </v>
   <v>       0.45614035       0.08771930       0.00000000 </v>
   <v>       0.44736842       0.10526316       0.00000000 </v>
   <v>       0.43859649       0.12280702       0.00000000 </v>
   <v>       0.42982456       0.14035088       0.00000000 </v>
   <v>       0.42105263       0.15789474       0.00000000 </v>
   <v>       0.41228070       0.17543860       0.00000000 </v>
   <v>       0.40350877       0.19298246       0.00000000 </v>
   <v>       0.39473684       0.21052632       0.00000000 </v>
   <v>       0.38596491       0.22807018       0.00000000 </v>
   <v>       0.37719298       0.24561404       0.00000000 </v>
   <v>       0.36842105       0.26315789       0.00000000 </v>
   <v>       0.35964912       0.28070175       0.00000000 </v>
   <v>       0.35087719       0.29824561       0.00000000 </v>
   <v>       0.34210526       0.31578947       0.00000000 </v>
   <v>       0.33333333       0.33333333       0.00000000 </v>
   <v>       0.33333333       0.33333333       0.00000000 </v>
   <v>       0.31578947       0.31578947       0.00000000 </v>
   <v>       0.29824561       0.29824561       0.00000000 </v>
   <v>       0.28070175       0.28070175       0.00000000 </v>
   <v>       0.26315789       0.26315789       0.00000000 </v>
   <v>       0.24561404       0.24561404       0.00000000 </v>
   <v>       0.22807018       0.22807018       0.00000000 </v>
   <v>       0.21052632       0.21052632       0.00000000 </v>
   <v>       0.19298246       0.19298246       0.00000000 </v>
   <v>       0.17543860       0.17543860       0.00000000 </v>
   <v>       0.15789474       0.15789474       0.00000000 </v>
   <v>       0.14035088       0.14035088       0.00000000 </v>
   <v>       0.12280702       0.12280702       0.00000000 </v>
   <v>       0.10526316       0.10526316       0.00000000 </v>
   <v>       0.08771930       0.08771930       0.00000000 </v>
   <v>       0.07017544       0.07017544       0.00000000 </v>
   <v>       0.05263158       0.05263158       0.00000000 </v>
   <v>       0.03508772       0.03508772       0.00000000 </v>
   <v>       0.01754386       0.01754386       0.00000000 </v>
   <v>       0.00000000       0.00000000       0.00000000 </v>
  </varray>
  <varray name="weights" >
   <v>       0.01666667 </v>
   <v>       0.01666667 </v>
   <v>       0.01666667 </v>
   <v>       0.01666667 </v>
   <v>       0.01666667 </v>
   <v>       0.01666667 </v>
   <v>       0.01666667 </v>
   <v>       0.01666667 </v>
   <v>       0.01666667 </v>
   <v>       0.01666667 </v>
   <v>       0.01666667 </v>
   <v>       0.01666667 </v>
   <v>       0.01666667 </v>
   <v>       0.01666667 </v>
   <v>       0.01666667 </v>
   <v>       0.01666667 </v>
   <v>       0.01666667 </v>
   <v>       0.01666667 </v>
   <v>       0.01666667 </v>
   <v>       0.01666667 </v>
   <v>       0.01666667 </v>
   <v>       0.01666667 </v>
   <v>       0.01666667 </v>
   <v>       0.01666667 </v>
   <v>       0.01666667 </v>
   <v>       0.01666667 </v>
   <v>       0.01666667 </v>
   <v>       0.01666667 </v>
   <v>       0.01666667 </v>
   <v>       0.01666667 </v>
   <v>       0.01666667 </v>
   <v>       0.01666667 </v>
   <v>       0.01666667 </v>
   <v>       0.01666667 </v>
   <v>       0.01666667 </v>
   <v>       0.01666667 </v>
   <v>       0.01666667 </v>
   <v>       0.01666667 </v>
   <v>       0.01666667 </v>
   <v>       0.01666667 </v>
   <v>       0.01666667 </v>
   <v>       0.01666667 </v>
   <v>       0.01666667 </v>
   <v>       0.01666667 </v>
   <v>       0.01666667 </v>
   <v>       0.01666667 </v>
   <v>       0.01666667 </v>
   <v>       0.01666667 </v>
   <v>       0.01666667 </v>
   <v>       0.01666667 </v>
   <v>       0.01666667 </v>
   <v>       0.01666667 </v>
   <v>       0.01666667 </v>
   <v>       0.01666667 </v>
   <v>       0.01666667 </v>
   <v>       0.01666667 </v>
   <v>       0.01666667 </v>
   <v>       0.01666667 </v>
   <v>       0.01666667 </v>
   <v>       0.01666667 </v>
  </varray>
 </kpoints>
 <parameters>
  <separator name="general" >
   <i type="string" name="SYSTEM">Simulation for cell shape cell volume r</i>
   <i type="logical" name="LCOMPAT"> F  </i>
  </separator>
  <separator name="electronic" >
   <i type="string" name="PREC">high</i>
   <i name="ENMAX">    500.00000000</i>
   <i name="ENAUG">    644.87300000</i>
   <i name="EDIFF">      0.00001000</i>
   <i type="int" name="IALGO">    38</i>
   <i type="int" name="IWAVPR">    10</i>
   <i type="int" name="NBANDS">   272</i>
   <i name="NELECT">    414.00000000</i>
   <i type="int" name="TURBO">     0</i>
   <i type="int" name="IRESTART">     0</i>
   <i type="int" name="NREBOOT">     0</i>
   <i type="int" name="NMIN">     0</i>
   <i name="EREF">      0.00000000</i>
   <separator name="electronic smearing" >
    <i type="int" name="ISMEAR">     0</i>
    <i name="SIGMA">      0.01000000</i>
    <i name="KSPACING">      0.50000000</i>
    <i type="logical" name="KGAMMA"> T  </i>
   </separator>
   <separator name="electronic projectors" >
    <i type="logical" name="LREAL"> T  </i>
    <v name="ROPT">     -0.00040000     -0.00040000     -0.00040000</v>
    <i type="int" name="LMAXPAW">  -100</i>
    <i type="int" name="LMAXMIX">     2</i>
    <i type="logical" name="NLSPLINE"> F  </i>
   </separator>
   <separator name="electronic startup" >
    <i type="int" name="ISTART">     1</i>
    <i type="int" name="ICHARG">    11</i>
    <i type="int" name="INIWAV">     1</i>
   </separator>
   <separator name="electronic spin" >
    <i type="int" name="ISPIN">     1</i>
    <i type="logical" name="LNONCOLLINEAR"> F  </i>
    <v name="MAGMOM">      1.00000000      1.00000000      1.00000000      1.00000000      1.00000000      1.00000000      1.00000000      1.00000000      1.00000000      1.00000000      1.00000000      1.00000000      1.00000000      1.00000000      1.00000000      1.00000000      1.00000000      1.00000000      1.00000000      1.00000000
      1.00000000      1.00000000      1.00000000      1.00000000      1.00000000      1.00000000      1.00000000      1.00000000      1.00000000      1.00000000      1.00000000      1.00000000      1.00000000      1.00000000      1.00000000      1.00000000      1.00000000      1.00000000      1.00000000      1.00000000
      1.00000000      1.00000000      1.00000000      1.00000000      1.00000000      1.00000000      1.00000000      1.00000000      1.00000000      1.00000000      1.00000000      1.00000000      1.00000000      1.00000000      1.00000000      1.00000000      1.00000000      1.00000000      1.00000000      1.00000000
      1.00000000      1.00000000      1.00000000      1.00000000      1.00000000      1.00000000      1.00000000      1.00000000      1.00000000      1.00000000      1.00000000      1.00000000      1.00000000      1.00000000      1.00000000      1.00000000      1.00000000      1.00000000      1.00000000      1.00000000
      1.00000000      1.00000000      1.00000000      1.00000000      1.00000000      1.00000000      1.00000000      1.00000000      1.00000000      1.00000000      1.00000000      1.00000000      1.00000000      1.00000000      1.00000000      1.00000000      1.00000000      1.00000000      1.00000000      1.00000000
      1.00000000      1.00000000      1.00000000      1.00000000      1.00000000      1.00000000      1.00000000      1.00000000      1.00000000      1.00000000      1.00000000      1.00000000      1.00000000      1.00000000      1.00000000      1.00000000      1.00000000      1.00000000      1.00000000      1.00000000
      1.00000000      1.00000000      1.00000000      1.00000000      1.00000000      1.00000000</v>
    <i name="NUPDOWN">     -1.00000000</i>
    <i type="logical" name="LSORBIT"> F  </i>
    <v name="SAXIS">      0.00000000      0.00000000      1.00000000</v>
    <i type="logical" name="LSPIRAL"> F  </i>
    <v name="QSPIRAL">      0.00000000      0.00000000      0.00000000</v>
    <i type="logical" name="LZEROZ"> F  </i>
   </separator>
   <separator name="electronic exchange-correlation" >
    <i type="logical" name="LASPH"> F  </i>
    <i type="logical" name="LMETAGGA"> F  </i>
   </separator>
   <separator name="electronic convergence" >
    <i type="int" name="NELM">   200</i>
    <i type="int" name="NELMDL">     0</i>
    <i type="int" name="NELMIN">     2</i>
    <i name="ENINI">    500.00000000</i>
    <separator name="electronic convergence detail" >
     <i type="logical" name="LDIAG"> T  </i>
     <i type="logical" name="LSUBROT"> F  </i>
     <i name="WEIMIN">      0.00000000</i>
     <i name="EBREAK">      0.00000001</i>
     <i name="DEPER">      0.30000000</i>
     <i type="int" name="NRMM">     4</i>
     <i name="TIME">      0.40000000</i>
    </separator>
   </separator>
   <separator name="electronic mixer" >
    <i name="AMIX">      0.40000000</i>
    <i name="BMIX">      1.00000000</i>
    <i name="AMIN">      0.10000000</i>
    <i name="AMIX_MAG">      1.60000000</i>
    <i name="BMIX_MAG">      1.00000000</i>
    <separator name="electronic mixer details" >
     <i type="int" name="IMIX">     4</i>
     <i type="logical" name="MIXFIRST"> F  </i>
     <i type="int" name="MAXMIX">   -45</i>
     <i name="WC">    100.00000000</i>
     <i type="int" name="INIMIX">     1</i>
     <i type="int" name="MIXPRE">     1</i>
     <i type="int" name="MREMOVE">     5</i>
    </separator>
   </separator>
   <separator name="electronic dipolcorrection" >
    <i type="logical" name="LDIPOL"> F  </i>
    <i type="logical" name="LMONO"> F  </i>
    <i type="int" name="IDIPOL">     0</i>
    <i name="EPSILON">      1.00000000</i>
    <v name="DIPOL">   -100.00000000   -100.00000000   -100.00000000</v>
    <i name="EFIELD">      0.00000000</i>
   </separator>
  </separator>
  <separator name="grids" >
   <i type="int" name="NGX">   224</i>
   <i type="int" name="NGY">   224</i>
   <i type="int" name="NGZ">   150</i>
   <i type="int" name="NGXF">   336</i>
   <i type="int" name="NGYF">   336</i>
   <i type="int" name="NGZF">   224</i>
   <i type="logical" name="ADDGRID"> F  </i>
  </separator>
  <separator name="ionic" >
   <i type="int" name="NSW">     0</i>
   <i type="int" name="IBRION">    -1</i>
   <i type="int" name="MDALGO">     0</i>
   <i type="int" name="ISIF">     2</i>
   <i name="PSTRESS">      0.00000000</i>
   <i name="EDIFFG">     -0.01000000</i>
   <i type="int" name="NFREE">     0</i>
   <i name="POTIM">      0.30000000</i>
   <i name="SMASS">     -3.00000000</i>
   <i name="SCALEE">      1.00000000</i>
  </separator>
  <separator name="ionic md" >
   <i name="TEBEG">      0.00010000</i>
   <i name="TEEND">      0.00010000</i>
   <i type="int" name="NBLOCK">     1</i>
   <i type="int" name="KBLOCK">     1</i>
   <i type="int" name="NPACO">   256</i>
   <i name="APACO">     16.00000000</i>
  </separator>
  <separator name="symmetry" >
   <i type="int" name="ISYM">     2</i>
   <i name="SYMPREC">      0.00001000</i>
  </separator>
  <separator name="dos" >
   <i type="int" name="LORBIT">     0</i>
   <v name="RWIGS">     -1.00000000     -1.00000000     -1.00000000</v>
   <i type="int" name="NEDOS">   301</i>
   <i name="EMIN">     10.00000000</i>
   <i name="EMAX">    -10.00000000</i>
   <i name="EFERMI">      0.00000000</i>
  </separator>
  <separator name="writing" >
   <i type="int" name="NWRITE">     0</i>
   <i type="logical" name="LWAVE"> F  </i>
   <i type="logical" name="LDOWNSAMPLE"> F  </i>
   <i type="logical" name="LCHARG"> F  </i>
   <i type="logical" name="LPARD"> F  </i>
   <i type="logical" name="LVTOT"> F  </i>
   <i type="logical" name="LVHAR"> F  </i>
   <i type="logical" name="LELF"> F  </i>
   <i type="logical" name="LOPTICS"> F  </i>
   <v name="STM">      0.00000000      0.00000000      0.00000000      0.00000000      0.00000000      0.00000000      0.00000000</v>
  </separator>
  <separator name="performance" >
   <i type="int" name="NPAR">    16</i>
   <i type="int" name="NSIM">     4</i>
   <i type="int" name="NBLK">    -1</i>
   <i type="logical" name="LPLANE"> T  </i>
   <i type="logical" name="LSCALAPACK"> T  </i>
   <i type="logical" name="LSCAAWARE"> F  </i>
   <i type="logical" name="LSCALU"> F  </i>
   <i type="logical" name="LASYNC"> F  </i>
   <i type="logical" name="LORBITALREAL"> F  </i>
  </separator>
  <separator name="miscellaneous" >
   <i type="int" name="IDIOT">     3</i>
   <i type="int" name="ISPECIAL">     0</i>
   <i type="logical" name="LMUSIC"> F  </i>
   <v name="POMASS">      1.00000000     12.01100000     14.00100000</v>
   <v name="DARWINR">      0.00000000      0.00000000      0.00000000</v>
   <v name="DARWINV">      1.00000000      1.00000000      1.00000000</v>
   <i type="logical" name="LCORR"> T  </i>
  </separator>
  <i type="logical" name="GGA_COMPAT"> T  </i>
  <i type="logical" name="LBERRY"> F  </i>
  <i type="int" name="ICORELEVEL">     0</i>
  <i type="logical" name="LDAU"> F  </i>
  <i type="int" name="I_CONSTRAINED_M">     0</i>
  <separator name="electronic exchange-correlation" >
   <i type="string" name="GGA">PE</i>
   <i type="int" name="VOSKOWN">     0</i>
   <i type="logical" name="LHFCALC"> F  </i>
   <i type="string" name="PRECFOCK"></i>
   <i type="logical" name="LSYMGRAD"> F  </i>
   <i type="logical" name="LHFONE"> F  </i>
   <i type="logical" name="LRHFCALC"> F  </i>
   <i type="logical" name="LTHOMAS"> F  </i>
   <i type="logical" name="LMODELHF"> F  </i>
   <i name="ENCUT4O">     -1.00000000</i>
   <i type="int" name="EXXOEP">     0</i>
   <i type="int" name="FOURORBIT">     0</i>
   <i name="AEXX">      0.00000000</i>
   <i name="HFALPHA">      0.00000000</i>
   <i name="MCALPHA">      0.00000000</i>
   <i name="ALDAX">      1.00000000</i>
   <i name="AGGAX">      1.00000000</i>
   <i name="ALDAC">      1.00000000</i>
   <i name="AGGAC">      1.00000000</i>
   <i type="int" name="NKREDX">     1</i>
   <i type="int" name="NKREDY">     1</i>
   <i type="int" name="NKREDZ">     1</i>
   <i type="logical" name="SHIFTRED"> F  </i>
   <i type="logical" name="ODDONLY"> F  </i>
   <i type="logical" name="EVENONLY"> F  </i>
   <i type="int" name="LMAXFOCK">     0</i>
   <i type="int" name="NMAXFOCKAE">     0</i>
   <i type="logical" name="LFOCKAEDFT"> F  </i>
   <i name="HFSCREEN">      0.00000000</i>
   <i name="HFSCREENC">      0.00000000</i>
   <i type="int" name="NBANDSGWLOW">     0</i>
  </separator>
  <separator name="vdW DFT" >
   <i type="logical" name="LUSE_VDW"> F  </i>
   <i name="Zab_VDW">     -0.84910000</i>
   <i name="PARAM1">      0.12340000</i>
   <i name="PARAM2">      1.00000000</i>
   <i name="PARAM3">      0.00000000</i>
  </separator>
  <separator name="model GW" >
   <i type="int" name="MODEL_GW">     0</i>
   <i name="MODEL_EPS0">     76.14813854</i>
   <i name="MODEL_ALPHA">      1.00000000</i>
  </separator>
  <separator name="linear response parameters" >
   <i type="logical" name="LEPSILON"> F  </i>
   <i type="logical" name="LRPA"> F  </i>
   <i type="logical" name="LNABLA"> F  </i>
   <i type="logical" name="LVEL"> F  </i>
   <i type="int" name="KINTER">     0</i>
   <i name="CSHIFT">      0.10000000</i>
   <i name="OMEGAMAX">     -1.00000000</i>
   <i name="DEG_THRESHOLD">      0.00200000</i>
   <i name="RTIME">     -0.10000000</i>
   <i name="WPLASMAI">      0.00000000</i>
   <v name="DFIELD">      0.00000000      0.00000000      0.00000000</v>
   <v name="WPLASMA">      0.00000000      0.00000000      0.00000000      0.00000000      0.00000000      0.00000000      0.00000000      0.00000000      0.00000000</v>
  </separator>
  <separator name="orbital magnetization" >
   <i type="logical" name="NUCIND"> F  </i>
   <v name="MAGPOS">      0.00000000      0.00000000      0.00000000</v>
   <i type="logical" name="LNICSALL"> T  </i>
   <i type="logical" name="ORBITALMAG"> F  </i>
   <i type="logical" name="LMAGBLOCH"> F  </i>
   <i type="logical" name="LCHIMAG"> F  </i>
   <i type="logical" name="LGAUGE"> T  </i>
   <i type="int" name="MAGATOM">     0</i>
   <v name="MAGDIPOL">      0.00000000      0.00000000      0.00000000</v>
   <v name="AVECCONST">      0.00000000      0.00000000      0.00000000</v>
  </separator>
  <separator name="response functions" >
   <i type="logical" name="LADDER"> F  </i>
   <i type="logical" name="LRPAFORCE"> F  </i>
   <i type="logical" name="LFXC"> F  </i>
   <i type="logical" name="LHARTREE"> T  </i>
   <i type="int" name="IBSE">     0</i>
   <v type="int" name="KPOINT">    -1     0     0     0</v>
   <i type="logical" name="LTCTE"> F  </i>
   <i type="logical" name="LTETE"> F  </i>
   <i type="logical" name="LTRIPLET"> F  </i>
   <i type="logical" name="LFXCEPS"> F  </i>
   <i type="logical" name="LFXHEG"> F  </i>
   <i type="int" name="NATURALO">     2</i>
   <i type="logical" name="L2ORDER"> F  </i>
   <i type="logical" name="LMP2LT"> F  </i>
   <i type="logical" name="LUSEW"> F  </i>
   <i name="ENCUTGW">     -2.00000000</i>
   <i name="ENCUTGWSOFT">     -2.00000000</i>
   <i name="ENCUTLF">     -1.00000000</i>
   <i type="int" name="LMAXMP2">    -1</i>
   <i name="SCISSOR">      0.00000000</i>
   <i type="int" name="NOMEGA">     0</i>
   <i type="int" name="NOMEGAR">     0</i>
   <i type="int" name="NBANDSGW">    -1</i>
   <i type="int" name="NBANDSO">    -1</i>
   <i type="int" name="NBANDSV">    -1</i>
   <i type="int" name="NELM">   200</i>
   <i type="int" name="NELMHF">     1</i>
   <i type="int" name="DIM">     3</i>
   <i type="int" name="ANTIRES">     0</i>
   <i name="OMEGAMAX">    -30.00000000</i>
   <i name="OMEGAMIN">    -30.00000000</i>
   <i name="OMEGATL">   -200.00000000</i>
   <i type="int" name="OMEGAGRID">   140</i>
   <i name="CSHIFT">     -0.10000000</i>
   <i type="logical" name="SELFENERGY"> F  </i>
   <i type="logical" name="LSPECTRAL"> F  </i>
   <i type="logical" name="LSPECTRALGW"> F  </i>
   <i type="logical" name="LSINGLES"> F  </i>
   <i type="logical" name="LFERMIGW"> F  </i>
   <i type="logical" name="ODDONLYGW"> F  </i>
   <i type="logical" name="EVENONLYGW"> F  </i>
   <i type="int" name="NKREDLFX">     1</i>
   <i type="int" name="NKREDLFY">     1</i>
   <i type="int" name="NKREDLFZ">     1</i>
   <i type="int" name="MAXMEM">  2800</i>
   <i type="int" name="TELESCOPE">     0</i>
   <i type="int" name="TAUPAR">     1</i>
   <i type="int" name="OMEGAPAR">    -1</i>
   <i name="LAMBDA">      1.00000000</i>
  </separator>
  <separator name="External order field" >
   <i name="OFIELD_KAPPA">      0.00000000</i>
   <v name="OFIELD_K">      0.00000000      0.00000000      0.00000000</v>
   <i name="OFIELD_Q6_NEAR">      0.00000000</i>
   <i name="OFIELD_Q6_FAR">      0.00000000</i>
   <i name="OFIELD_A">      0.00000000</i>
  </separator>
  <separator name="solvation model" >
   <i type="logical" name="LSOL"> F  </i>
  </separator>
 </parameters>
 <atominfo>
  <atoms>     126 </atoms>
  <types>       3 </types>
  <array name="atoms" >
   <dimension dim="1">ion</dimension>
   <field type="string">element</field>
   <field type="int">atomtype</field>
   <set>
    <rc><c>H </c><c>   1</c></rc>
    <rc><c>H </c><c>   1</c></rc>
    <rc><c>H </c><c>   1</c></rc>
    <rc><c>H </c><c>   1</c></rc>
    <rc><c>H </c><c>   1</c></rc>
    <rc><c>H </c><c>   1</c></rc>
    <rc><c>H </c><c>   1</c></rc>
    <rc><c>H </c><c>   1</c></rc>
    <rc><c>H </c><c>   1</c></rc>
    <rc><c>H </c><c>   1</c></rc>
    <rc><c>H </c><c>   1</c></rc>
    <rc><c>H </c><c>   1</c></rc>
    <rc><c>H </c><c>   1</c></rc>
    <rc><c>H </c><c>   1</c></rc>
    <rc><c>H </c><c>   1</c></rc>
    <rc><c>H </c><c>   1</c></rc>
    <rc><c>H </c><c>   1</c></rc>
    <rc><c>H </c><c>   1</c></rc>
    <rc><c>H </c><c>   1</c></rc>
    <rc><c>H </c><c>   1</c></rc>
    <rc><c>H </c><c>   1</c></rc>
    <rc><c>H </c><c>   1</c></rc>
    <rc><c>H </c><c>   1</c></rc>
    <rc><c>H </c><c>   1</c></rc>
    <rc><c>H </c><c>   1</c></rc>
    <rc><c>H </c><c>   1</c></rc>
    <rc><c>H </c><c>   1</c></rc>
    <rc><c>H </c><c>   1</c></rc>
    <rc><c>H </c><c>   1</c></rc>
    <rc><c>H </c><c>   1</c></rc>
    <rc><c>H </c><c>   1</c></rc>
    <rc><c>H </c><c>   1</c></rc>
    <rc><c>H </c><c>   1</c></rc>
    <rc><c>H </c><c>   1</c></rc>
    <rc><c>H </c><c>   1</c></rc>
    <rc><c>H </c><c>   1</c></rc>
    <rc><c>C </c><c>   2</c></rc>
    <rc><c>C </c><c>   2</c></rc>
    <rc><c>C </c><c>   2</c></rc>
    <rc><c>C </c><c>   2</c></rc>
    <rc><c>C </c><c>   2</c></rc>
    <rc><c>C </c><c>   2</c></rc>
    <rc><c>C </c><c>   2</c></rc>
    <rc><c>C </c><c>   2</c></rc>
    <rc><c>C </c><c>   2</c></rc>
    <rc><c>C </c><c>   2</c></rc>
    <rc><c>C </c><c>   2</c></rc>
    <rc><c>C </c><c>   2</c></rc>
    <rc><c>C </c><c>   2</c></rc>
    <rc><c>C </c><c>   2</c></rc>
    <rc><c>C </c><c>   2</c></rc>
    <rc><c>C </c><c>   2</c></rc>
    <rc><c>C </c><c>   2</c></rc>
    <rc><c>C </c><c>   2</c></rc>
    <rc><c>C </c><c>   2</c></rc>
    <rc><c>C </c><c>   2</c></rc>
    <rc><c>C </c><c>   2</c></rc>
    <rc><c>C </c><c>   2</c></rc>
    <rc><c>C </c><c>   2</c></rc>
    <rc><c>C </c><c>   2</c></rc>
    <rc><c>C </c><c>   2</c></rc>
    <rc><c>C </c><c>   2</c></rc>
    <rc><c>C </c><c>   2</c></rc>
    <rc><c>C </c><c>   2</c></rc>
    <rc><c>C </c><c>   2</c></rc>
    <rc><c>C </c><c>   2</c></rc>
    <rc><c>C </c><c>   2</c></rc>
    <rc><c>C </c><c>   2</c></rc>
    <rc><c>C </c><c>   2</c></rc>
    <rc><c>C </c><c>   2</c></rc>
    <rc><c>C </c><c>   2</c></rc>
    <rc><c>C </c><c>   2</c></rc>
    <rc><c>C </c><c>   2</c></rc>
    <rc><c>C </c><c>   2</c></rc>
    <rc><c>C </c><c>   2</c></rc>
    <rc><c>C </c><c>   2</c></rc>
    <rc><c>C </c><c>   2</c></rc>
    <rc><c>C </c><c>   2</c></rc>
    <rc><c>C </c><c>   2</c></rc>
    <rc><c>C </c><c>   2</c></rc>
    <rc><c>C </c><c>   2</c></rc>
    <rc><c>C </c><c>   2</c></rc>
    <rc><c>C </c><c>   2</c></rc>
    <rc><c>C </c><c>   2</c></rc>
    <rc><c>C </c><c>   2</c></rc>
    <rc><c>C </c><c>   2</c></rc>
    <rc><c>C </c><c>   2</c></rc>
    <rc><c>C </c><c>   2</c></rc>
    <rc><c>C </c><c>   2</c></rc>
    <rc><c>C </c><c>   2</c></rc>
    <rc><c>C </c><c>   2</c></rc>
    <rc><c>C </c><c>   2</c></rc>
    <rc><c>C </c><c>   2</c></rc>
    <rc><c>C </c><c>   2</c></rc>
    <rc><c>C </c><c>   2</c></rc>
    <rc><c>C </c><c>   2</c></rc>
    <rc><c>C </c><c>   2</c></rc>
    <rc><c>C </c><c>   2</c></rc>
    <rc><c>C </c><c>   2</c></rc>
    <rc><c>C </c><c>   2</c></rc>
    <rc><c>C </c><c>   2</c></rc>
    <rc><c>C </c><c>   2</c></rc>
    <rc><c>C </c><c>   2</c></rc>
    <rc><c>C </c><c>   2</c></rc>
    <rc><c>C </c><c>   2</c></rc>
    <rc><c>C </c><c>   2</c></rc>
    <rc><c>C </c><c>   2</c></rc>
    <rc><c>C </c><c>   2</c></rc>
    <rc><c>N </c><c>   3</c></rc>
    <rc><c>N </c><c>   3</c></rc>
    <rc><c>N </c><c>   3</c></rc>
    <rc><c>N </c><c>   3</c></rc>
    <rc><c>N </c><c>   3</c></rc>
    <rc><c>N </c><c>   3</c></rc>
    <rc><c>N </c><c>   3</c></rc>
    <rc><c>N </c><c>   3</c></rc>
    <rc><c>N </c><c>   3</c></rc>
    <rc><c>N </c><c>   3</c></rc>
    <rc><c>N </c><c>   3</c></rc>
    <rc><c>N </c><c>   3</c></rc>
    <rc><c>N </c><c>   3</c></rc>
    <rc><c>N </c><c>   3</c></rc>
    <rc><c>N </c><c>   3</c></rc>
    <rc><c>N </c><c>   3</c></rc>
    <rc><c>N </c><c>   3</c></rc>
    <rc><c>N </c><c>   3</c></rc>
   </set>
  </array>
  <array name="atomtypes" >
   <dimension dim="1">type</dimension>
   <field type="int">atomspertype</field>
   <field type="string">element</field>
   <field>mass</field>
   <field>valence</field>
   <field type="string">pseudopotential</field>
   <set>
    <rc><c>  36</c><c>H </c><c>      1.00000000</c><c>      1.00000000</c><c>  PAW_PBE H 15Jun2001                   </c></rc>
    <rc><c>  72</c><c>C </c><c>     12.01100000</c><c>      4.00000000</c><c>  PAW_PBE C 08Apr2002                   </c></rc>
    <rc><c>  18</c><c>N </c><c>     14.00100000</c><c>      5.00000000</c><c>  PAW_PBE N 08Apr2002                   </c></rc>
   </set>
  </array>
 </atominfo>
 <structure name="initialpos" >
  <crystal>
   <varray name="basis" >
    <v>      30.38015135      -0.00178519       0.00000000 </v>
    <v>     -15.19162091      26.31924263       0.00000000 </v>
    <v>       0.00000000       0.00000000      20.00000000 </v>
   </varray>
   <i name="volume">  15991.10909325 </i>
   <varray name="rec_basis" >
    <v>       0.03291734       0.01900008       0.00000000 </v>
    <v>       0.00000223       0.03799630       0.00000000 </v>
    <v>       0.00000000       0.00000000       0.05000000 </v>
   </varray>
  </crystal>
  <varray name="positions" >
   <v>       0.63787871       0.12868370       0.51716555 </v>
   <v>       0.49577570       0.12873458       0.51446145 </v>
   <v>       0.53192718       0.05859463       0.40757606 </v>
   <v>       0.63763114       0.27016912       0.51387892 </v>
   <v>       0.53068823       0.23821966       0.62216391 </v>
   <v>       0.71293219       0.23837628       0.40746551 </v>
   <v>       0.78745941       0.31234251       0.62188687 </v>
   <v>       0.52973223       0.31254452       0.40820265 </v>
   <v>       0.49586280       0.38778429       0.51760023 </v>
   <v>       0.63808968       0.52978517       0.51548661 </v>
   <v>       0.63760674       0.38792368       0.51522773 </v>
   <v>       0.89696240       0.52973959       0.51773384 </v>
   <v>       0.89695593       0.38765647       0.51435617 </v>
   <v>       0.75545271       0.38799515       0.51445113 </v>
   <v>       0.38251508       0.90203648       0.51531222 </v>
   <v>       0.52471505       0.90218344       0.51247662 </v>
   <v>       0.38299383       0.76065082       0.51653998 </v>
   <v>       0.52493211       0.64331226       0.51595194 </v>
   <v>       0.38276556       0.50128941       0.51261281 </v>
   <v>       0.38316091       0.64309758       0.51609442 </v>
   <v>       0.12371529       0.50115395       0.51528010 </v>
   <v>       0.12354954       0.64315716       0.51254688 </v>
   <v>       0.26513500       0.64303324       0.51609043 </v>
   <v>       0.48818084       0.97225769       0.62182670 </v>
   <v>       0.48928955       0.53778789       0.62253181 </v>
   <v>       0.05354151       0.53751124       0.62202962 </v>
   <v>       0.71303379       0.49481329       0.62313343 </v>
   <v>       0.49114824       0.79302043       0.62253095 </v>
   <v>       0.30785682       0.53614998       0.62270714 </v>
   <v>       0.23283610       0.71842800       0.62226241 </v>
   <v>       0.53200549       0.49376993       0.40853459 </v>
   <v>       0.96705884       0.49325573       0.40784131 </v>
   <v>       0.78753231       0.49599473       0.40844602 </v>
   <v>       0.49018688       0.71830923       0.40813580 </v>
   <v>       0.23304099       0.53511542       0.40833670 </v>
   <v>       0.30761130       0.79261201       0.40804016 </v>
   <v>       0.61745004       0.14970393       0.51584904 </v>
   <v>       0.56411344       0.12328567       0.51551560 </v>
   <v>       0.53724305       0.14974117       0.51466200 </v>
   <v>       0.53577151       0.06665762       0.51576736 </v>
   <v>       0.52205928       0.03894517       0.45575272 </v>
   <v>       0.56368561       0.20282710       0.51409252 </v>
   <v>       0.61686907       0.22868627       0.51432076 </v>
   <v>       0.64414659       0.20279106       0.51530449 </v>
   <v>       0.54113888       0.23658526       0.51412129 </v>
   <v>       0.53474567       0.25701684       0.57411598 </v>
   <v>       0.70046675       0.23653546       0.51543640 </v>
   <v>       0.72747902       0.25710919       0.45561187 </v>
   <v>       0.54110313       0.32511883       0.51610213 </v>
   <v>       0.78903000       0.32510814       0.51400385 </v>
   <v>       0.76862839       0.29791814       0.57377384 </v>
   <v>       0.53425630       0.29806248       0.45620683 </v>
   <v>       0.64422209       0.46186473       0.51532055 </v>
   <v>       0.61688295       0.40869572       0.51553092 </v>
   <v>       0.56369391       0.38144773       0.51615076 </v>
   <v>       0.53732331       0.40818461       0.51657117 </v>
   <v>       0.56426777       0.46151347       0.51650765 </v>
   <v>       0.61759762       0.48832973       0.51576503 </v>
   <v>       0.82282230       0.38141794       0.51431380 </v>
   <v>       0.79695163       0.40872298       0.51477809 </v>
   <v>       0.82285053       0.46188857       0.51582425 </v>
   <v>       0.87594822       0.48830114       0.51632002 </v>
   <v>       0.90239492       0.46141795       0.51581566 </v>
   <v>       0.87593462       0.40809699       0.51477269 </v>
   <v>       0.45688614       0.82805819       0.51485365 </v>
   <v>       0.40369821       0.80213470       0.51591232 </v>
   <v>       0.37635160       0.82797202       0.51593753 </v>
   <v>       0.40299998       0.88106094       0.51513089 </v>
   <v>       0.45633231       0.90755303       0.51408237 </v>
   <v>       0.48326207       0.88114834       0.51393954 </v>
   <v>       0.37656026       0.56916216       0.51470302 </v>
   <v>       0.40388837       0.62233197       0.51569079 </v>
   <v>       0.45707887       0.64959716       0.51601121 </v>
   <v>       0.48346997       0.62289674       0.51554780 </v>
   <v>       0.45657027       0.56958377       0.51449952 </v>
   <v>       0.40322928       0.54272923       0.51404490 </v>
   <v>       0.19769409       0.64947753       0.51449764 </v>
   <v>       0.22363933       0.62224834       0.51556232 </v>
   <v>       0.19780809       0.56907667       0.51578242 </v>
   <v>       0.14470226       0.54260884       0.51505270 </v>
   <v>       0.11820268       0.56943666       0.51410609 </v>
   <v>       0.14459543       0.62275408       0.51386543 </v>
   <v>       0.49820748       0.99190040       0.57364190 </v>
   <v>       0.49896584       0.52771955       0.57441414 </v>
   <v>       0.03387395       0.52750540       0.57385843 </v>
   <v>       0.70052783       0.48441712       0.51515681 </v>
   <v>       0.72757825       0.49074998       0.57492749 </v>
   <v>       0.78910896       0.48445049       0.51624871 </v>
   <v>       0.47955394       0.79438856       0.51471283 </v>
   <v>       0.48657121       0.77411427       0.57443311 </v>
   <v>       0.47970560       0.70590515       0.51613541 </v>
   <v>       0.32022748       0.54660192       0.51471010 </v>
   <v>       0.29326398       0.54027066       0.57456003 </v>
   <v>       0.23161831       0.54656949       0.51616132 </v>
   <v>       0.23138552       0.70578618       0.51435506 </v>
   <v>       0.25175041       0.73287064       0.57419154 </v>
   <v>       0.32001772       0.79424877       0.51602945 </v>
   <v>       0.48458246       0.96418483       0.51363106 </v>
   <v>       0.53609091       0.48997313       0.51674297 </v>
   <v>       0.52219625       0.50369743       0.45665880 </v>
   <v>       0.48492887       0.54130044       0.51432325 </v>
   <v>       0.95904348       0.48976626       0.51603878 </v>
   <v>       0.98673292       0.50334938       0.45601222 </v>
   <v>       0.06156178       0.54109599       0.51382854 </v>
   <v>       0.76869802       0.49139771       0.45660870 </v>
   <v>       0.48604250       0.73287257       0.45628089 </v>
   <v>       0.25195276       0.53963980       0.45642160 </v>
   <v>       0.29300498       0.77382778       0.45613488 </v>
   <v>       0.52362152       0.04273905       0.57517906 </v>
   <v>       0.72345528       0.25517963       0.57436241 </v>
   <v>       0.53671085       0.25533218       0.45531004 </v>
   <v>       0.53715344       0.30216008       0.57494656 </v>
   <v>       0.77019971       0.30229230       0.45502399 </v>
   <v>       0.52438697       0.50229170       0.57610478 </v>
   <v>       0.98302810       0.50211121       0.57541275 </v>
   <v>       0.77033380       0.48833519       0.57531520 </v>
   <v>       0.48424027       0.72898223       0.57503493 </v>
   <v>       0.25049907       0.54267309       0.57514900 </v>
   <v>       0.29695727       0.77556153       0.57492318 </v>
   <v>       0.49667114       0.98810201       0.45418820 </v>
   <v>       0.49682851       0.52917602       0.45497325 </v>
   <v>       0.03759094       0.52887263       0.45444888 </v>
   <v>       0.72351935       0.48896493       0.45618097 </v>
   <v>       0.48354156       0.77555634       0.45574394 </v>
   <v>       0.29713405       0.54207138       0.45582999 </v>
   <v>       0.25021381       0.72870109       0.45542035 </v>
  </varray>
 </structure>
 <calculation>
  <scstep>
   <time name="dav">  387.70  391.28</time>
   <time name="total">  388.01  391.60</time>
   <energy>
    <i name="alphaZ">     50.59377507 </i>
    <i name="ewald">  54210.27002589 </i>
    <i name="hartreedc"> -67055.97501615 </i>
    <i name="XCdc">   1448.17685994 </i>
    <i name="pawpsdc">  39230.42467575 </i>
    <i name="pawaedc"> -39305.31893377 </i>
    <i name="eentropy">     -0.00000000 </i>
    <i name="bandstr">  -5303.26686318 </i>
    <i name="atom">  15805.82512633 </i>
    <i name="e_fr_energy">   -919.27035013 </i>
    <i name="e_wo_entrp">   -919.27035013 </i>
    <i name="e_0_energy">   -919.27035013 </i>
   </energy>
  </scstep>
  <scstep>
   <time name="dav">  427.81  431.78</time>
   <time name="total">  427.81  431.78</time>
   <energy>
    <i name="e_fr_energy">   -919.75441495 </i>
    <i name="e_wo_entrp">   -919.75441495 </i>
    <i name="e_0_energy">   -919.75441495 </i>
   </energy>
  </scstep>
  <scstep>
   <time name="dav">  500.61  505.30</time>
   <time name="total">  500.63  505.32</time>
   <energy>
    <i name="e_fr_energy">   -919.76960396 </i>
    <i name="e_wo_entrp">   -919.76960396 </i>
    <i name="e_0_energy">   -919.76960396 </i>
   </energy>
  </scstep>
  <scstep>
   <time name="dav">  426.56  430.56</time>
   <time name="total">  426.57  430.57</time>
   <energy>
    <i name="e_fr_energy">   -919.76978925 </i>
    <i name="e_wo_entrp">   -919.76978925 </i>
    <i name="e_0_energy">   -919.76978925 </i>
   </energy>
  </scstep>
  <scstep>
   <time name="dav">  414.27  418.15</time>
   <time name="total">  414.28  418.16</time>
   <energy>
    <i name="e_fr_energy">   -919.76979999 </i>
    <i name="e_wo_entrp">   -919.76979999 </i>
    <i name="e_0_energy">   -919.76979999 </i>
   </energy>
  </scstep>
  <scstep>
   <time name="dav">  332.50  335.60</time>
   <time name="total">  332.51  335.61</time>
   <energy>
    <i name="alphaZ">     50.59377507 </i>
    <i name="ewald">  54210.27002589 </i>
    <i name="hartreedc"> -67055.97501615 </i>
    <i name="XCdc">   1448.17685994 </i>
    <i name="pawpsdc">  39230.42467575 </i>
    <i name="pawaedc"> -39305.31893377 </i>
    <i name="eentropy">     -0.00000000 </i>
    <i name="bandstr">  -5303.76631325 </i>
    <i name="atom">  15805.82512633 </i>
    <i name="e_fr_energy">   -919.76980020 </i>
    <i name="e_wo_entrp">   -919.76980020 </i>
    <i name="e_0_energy">   -919.76980020 </i>
   </energy>
  </scstep>
  <structure>
   <crystal>
    <varray name="basis" >
     <v>      30.38015135      -0.00178519       0.00000000 </v>
     <v>     -15.19162091      26.31924263       0.00000000 </v>
     <v>       0.00000000       0.00000000      20.00000000 </v>
    </varray>
    <i name="volume">  15991.10909325 </i>
    <varray name="rec_basis" >
     <v>       0.03291734       0.01900008       0.00000000 </v>
     <v>       0.00000223       0.03799630       0.00000000 </v>
     <v>       0.00000000       0.00000000       0.05000000 </v>
    </varray>
   </crystal>
   <varray name="positions" >
    <v>       0.63787871       0.12868370       0.51716555 </v>
    <v>       0.49577570       0.12873458       0.51446145 </v>
    <v>       0.53192718       0.05859463       0.40757606 </v>
    <v>       0.63763114       0.27016912       0.51387892 </v>
    <v>       0.53068823       0.23821966       0.62216391 </v>
    <v>       0.71293219       0.23837628       0.40746551 </v>
    <v>       0.78745941       0.31234251       0.62188687 </v>
    <v>       0.52973223       0.31254452       0.40820265 </v>
    <v>       0.49586280       0.38778429       0.51760023 </v>
    <v>       0.63808968       0.52978517       0.51548661 </v>
    <v>       0.63760674       0.38792368       0.51522773 </v>
    <v>       0.89696240       0.52973959       0.51773384 </v>
    <v>       0.89695593       0.38765647       0.51435617 </v>
    <v>       0.75545271       0.38799515       0.51445113 </v>
    <v>       0.38251508       0.90203648       0.51531222 </v>
    <v>       0.52471505       0.90218344       0.51247662 </v>
    <v>       0.38299383       0.76065082       0.51653998 </v>
    <v>       0.52493211       0.64331226       0.51595194 </v>
    <v>       0.38276556       0.50128941       0.51261281 </v>
    <v>       0.38316091       0.64309758       0.51609442 </v>
    <v>       0.12371529       0.50115395       0.51528010 </v>
    <v>       0.12354954       0.64315716       0.51254688 </v>
    <v>       0.26513500       0.64303324       0.51609043 </v>
    <v>       0.48818084       0.97225769       0.62182670 </v>
    <v>       0.48928955       0.53778789       0.62253181 </v>
    <v>       0.05354151       0.53751124       0.62202962 </v>
    <v>       0.71303379       0.49481329       0.62313343 </v>
    <v>       0.49114824       0.79302043       0.62253095 </v>
    <v>       0.30785682       0.53614998       0.62270714 </v>
    <v>       0.23283610       0.71842800       0.62226241 </v>
    <v>       0.53200549       0.49376993       0.40853459 </v>
    <v>       0.96705884       0.49325573       0.40784131 </v>
    <v>       0.78753231       0.49599473       0.40844602 </v>
    <v>       0.49018688       0.71830923       0.40813580 </v>
    <v>       0.23304099       0.53511542       0.40833670 </v>
    <v>       0.30761130       0.79261201       0.40804016 </v>
    <v>       0.61745004       0.14970393       0.51584904 </v>
    <v>       0.56411344       0.12328567       0.51551560 </v>
    <v>       0.53724305       0.14974117       0.51466200 </v>
    <v>       0.53577151       0.06665762       0.51576736 </v>
    <v>       0.52205928       0.03894517       0.45575272 </v>
    <v>       0.56368561       0.20282710       0.51409252 </v>
    <v>       0.61686907       0.22868627       0.51432076 </v>
    <v>       0.64414659       0.20279106       0.51530449 </v>
    <v>       0.54113888       0.23658526       0.51412129 </v>
    <v>       0.53474567       0.25701684       0.57411598 </v>
    <v>       0.70046675       0.23653546       0.51543640 </v>
    <v>       0.72747902       0.25710919       0.45561187 </v>
    <v>       0.54110313       0.32511883       0.51610213 </v>
    <v>       0.78903000       0.32510814       0.51400385 </v>
    <v>       0.76862839       0.29791814       0.57377384 </v>
    <v>       0.53425630       0.29806248       0.45620683 </v>
    <v>       0.64422209       0.46186473       0.51532055 </v>
    <v>       0.61688295       0.40869572       0.51553092 </v>
    <v>       0.56369391       0.38144773       0.51615076 </v>
    <v>       0.53732331       0.40818461       0.51657117 </v>
    <v>       0.56426777       0.46151347       0.51650765 </v>
    <v>       0.61759762       0.48832973       0.51576503 </v>
    <v>       0.82282230       0.38141794       0.51431380 </v>
    <v>       0.79695163       0.40872298       0.51477809 </v>
    <v>       0.82285053       0.46188857       0.51582425 </v>
    <v>       0.87594822       0.48830114       0.51632002 </v>
    <v>       0.90239492       0.46141795       0.51581566 </v>
    <v>       0.87593462       0.40809699       0.51477269 </v>
    <v>       0.45688614       0.82805819       0.51485365 </v>
    <v>       0.40369821       0.80213470       0.51591232 </v>
    <v>       0.37635160       0.82797202       0.51593753 </v>
    <v>       0.40299998       0.88106094       0.51513089 </v>
    <v>       0.45633231       0.90755303       0.51408237 </v>
    <v>       0.48326207       0.88114834       0.51393954 </v>
    <v>       0.37656026       0.56916216       0.51470302 </v>
    <v>       0.40388837       0.62233197       0.51569079 </v>
    <v>       0.45707887       0.64959716       0.51601121 </v>
    <v>       0.48346997       0.62289674       0.51554780 </v>
    <v>       0.45657027       0.56958377       0.51449952 </v>
    <v>       0.40322928       0.54272923       0.51404490 </v>
    <v>       0.19769409       0.64947753       0.51449764 </v>
    <v>       0.22363933       0.62224834       0.51556232 </v>
    <v>       0.19780809       0.56907667       0.51578242 </v>
    <v>       0.14470226       0.54260884       0.51505270 </v>
    <v>       0.11820268       0.56943666       0.51410609 </v>
    <v>       0.14459543       0.62275408       0.51386543 </v>
    <v>       0.49820748       0.99190040       0.57364190 </v>
    <v>       0.49896584       0.52771955       0.57441414 </v>
    <v>       0.03387395       0.52750540       0.57385843 </v>
    <v>       0.70052783       0.48441712       0.51515681 </v>
    <v>       0.72757825       0.49074998       0.57492749 </v>
    <v>       0.78910896       0.48445049       0.51624871 </v>
    <v>       0.47955394       0.79438856       0.51471283 </v>
    <v>       0.48657121       0.77411427       0.57443311 </v>
    <v>       0.47970560       0.70590515       0.51613541 </v>
    <v>       0.32022748       0.54660192       0.51471010 </v>
    <v>       0.29326398       0.54027066       0.57456003 </v>
    <v>       0.23161831       0.54656949       0.51616132 </v>
    <v>       0.23138552       0.70578618       0.51435506 </v>
    <v>       0.25175041       0.73287064       0.57419154 </v>
    <v>       0.32001772       0.79424877       0.51602945 </v>
    <v>       0.48458246       0.96418483       0.51363106 </v>
    <v>       0.53609091       0.48997313       0.51674297 </v>
    <v>       0.52219625       0.50369743       0.45665880 </v>
    <v>       0.48492887       0.54130044       0.51432325 </v>
    <v>       0.95904348       0.48976626       0.51603878 </v>
    <v>       0.98673292       0.50334938       0.45601222 </v>
    <v>       0.06156178       0.54109599       0.51382854 </v>
    <v>       0.76869802       0.49139771       0.45660870 </v>
    <v>       0.48604250       0.73287257       0.45628089 </v>
    <v>       0.25195276       0.53963980       0.45642160 </v>
    <v>       0.29300498       0.77382778       0.45613488 </v>
    <v>       0.52362152       0.04273905       0.57517906 </v>
    <v>       0.72345528       0.25517963       0.57436241 </v>
    <v>       0.53671085       0.25533218       0.45531004 </v>
    <v>       0.53715344       0.30216008       0.57494656 </v>
    <v>       0.77019971       0.30229230       0.45502399 </v>
    <v>       0.52438697       0.50229170       0.57610478 </v>
    <v>       0.98302810       0.50211121       0.57541275 </v>
    <v>       0.77033380       0.48833519       0.57531520 </v>
    <v>       0.48424027       0.72898223       0.57503493 </v>
    <v>       0.25049907       0.54267309       0.57514900 </v>
    <v>       0.29695727       0.77556153       0.57492318 </v>
    <v>       0.49667114       0.98810201       0.45418820 </v>
    <v>       0.49682851       0.52917602       0.45497325 </v>
    <v>       0.03759094       0.52887263       0.45444888 </v>
    <v>       0.72351935       0.48896493       0.45618097 </v>
    <v>       0.48354156       0.77555634       0.45574394 </v>
    <v>       0.29713405       0.54207138       0.45582999 </v>
    <v>       0.25021381       0.72870109       0.45542035 </v>
   </varray>
  </structure>
  <varray name="forces" >
   <v>       0.00018428      -0.00032256      -0.00078222 </v>
   <v>       0.00092229       0.00048541      -0.00051811 </v>
   <v>       0.00146771       0.00091698      -0.00023695 </v>
   <v>       0.00002629      -0.00207986      -0.00048036 </v>
   <v>      -0.00150820      -0.00333010       0.00283554 </v>
   <v>      -0.00007172       0.00133125       0.00094466 </v>
   <v>       0.00195037       0.00119019       0.00028070 </v>
   <v>       0.00079581       0.00207074       0.00030921 </v>
   <v>      -0.00054408       0.00155000       0.00169264 </v>
   <v>      -0.00044664      -0.00433633       0.00350589 </v>
   <v>      -0.00068689      -0.00030150       0.00017556 </v>
   <v>       0.00046026      -0.00202581      -0.00007207 </v>
   <v>      -0.00006619      -0.00028648       0.00078501 </v>
   <v>       0.00222751       0.00084009      -0.00109820 </v>
   <v>       0.00053267       0.00055066      -0.00318111 </v>
   <v>      -0.00218502      -0.00196327      -0.00141676 </v>
   <v>      -0.00017162       0.00108447      -0.00031800 </v>
   <v>      -0.00032662      -0.00105283      -0.00118462 </v>
   <v>       0.00090035       0.00193250       0.00087890 </v>
   <v>       0.00176735      -0.00107220       0.00091618 </v>
   <v>       0.00037935       0.00025277      -0.00072462 </v>
   <v>       0.00145121      -0.00227071      -0.00211663 </v>
   <v>      -0.00114306      -0.00053410       0.00058708 </v>
   <v>       0.00058178      -0.00066864      -0.00099397 </v>
   <v>       0.00334292       0.00189766      -0.00090709 </v>
   <v>      -0.00046445       0.00048083       0.00062032 </v>
   <v>       0.00064224       0.00003396       0.00311765 </v>
   <v>       0.00002143      -0.00132428      -0.00192642 </v>
   <v>      -0.00188810       0.00257650       0.00139113 </v>
   <v>       0.00064214      -0.00137063      -0.00267300 </v>
   <v>      -0.00264897      -0.00044677       0.00015124 </v>
   <v>       0.00306323      -0.00029651       0.00137015 </v>
   <v>       0.00122454      -0.00067535       0.00161453 </v>
   <v>       0.00052641       0.00018441      -0.00015501 </v>
   <v>       0.00310858      -0.00302746       0.00197125 </v>
   <v>      -0.00089695       0.00266402       0.00120412 </v>
   <v>      -0.00056308       0.00151403      -0.00115968 </v>
   <v>       0.00022589      -0.00189392      -0.00038997 </v>
   <v>       0.00140645      -0.00029560      -0.00169720 </v>
   <v>      -0.00023826      -0.00102645      -0.00167474 </v>
   <v>      -0.00173797      -0.00157638      -0.00053343 </v>
   <v>      -0.00212989       0.00198085      -0.00107464 </v>
   <v>       0.00018014      -0.00175908      -0.00104618 </v>
   <v>       0.00233564       0.00138005       0.00003731 </v>
   <v>      -0.00146636      -0.00016301      -0.00326184 </v>
   <v>      -0.00016704      -0.00167972      -0.00370058 </v>
   <v>      -0.00271255      -0.00074855      -0.00321322 </v>
   <v>      -0.00184722      -0.00037841      -0.00027444 </v>
   <v>      -0.00145786       0.00597887      -0.00018670 </v>
   <v>      -0.00058728       0.00213939      -0.00425443 </v>
   <v>      -0.00022748       0.00013618      -0.00214893 </v>
   <v>       0.00003589      -0.00259568       0.00191920 </v>
   <v>      -0.00262473      -0.00004187       0.00127014 </v>
   <v>      -0.00186553      -0.00041372      -0.00031160 </v>
   <v>       0.00038802       0.00001552       0.00155015 </v>
   <v>       0.00136557      -0.00055095      -0.00017871 </v>
   <v>       0.00254764       0.00059100      -0.00042184 </v>
   <v>       0.00134572       0.00191286       0.00143332 </v>
   <v>       0.00078171       0.00194573       0.00007053 </v>
   <v>       0.00067166       0.00023128      -0.00096230 </v>
   <v>       0.00377875      -0.00076839       0.00145295 </v>
   <v>       0.00137658      -0.00127221       0.00026139 </v>
   <v>       0.00020695       0.00000466       0.00040652 </v>
   <v>       0.00052837      -0.00021155      -0.00032095 </v>
   <v>       0.00047199       0.00129822       0.00001514 </v>
   <v>       0.00051171       0.00178623       0.00050029 </v>
   <v>      -0.00021150      -0.00042269       0.00092652 </v>
   <v>       0.00000977      -0.00021543      -0.00067612 </v>
   <v>      -0.00044316      -0.00082154      -0.00074078 </v>
   <v>      -0.00007905       0.00062637      -0.00059564 </v>
   <v>       0.00241785       0.00053834       0.00145476 </v>
   <v>      -0.00030252      -0.00069387       0.00151663 </v>
   <v>       0.00078182      -0.00060931       0.00062733 </v>
   <v>      -0.00024213       0.00010016      -0.00012364 </v>
   <v>      -0.00162914      -0.00023400       0.00069472 </v>
   <v>       0.00103646      -0.00038414       0.00153529 </v>
   <v>      -0.00306253       0.00152423      -0.00188050 </v>
   <v>      -0.00130993      -0.00210795      -0.00016728 </v>
   <v>       0.00298984      -0.00111941       0.00166611 </v>
   <v>       0.00088096       0.00174496       0.00071859 </v>
   <v>      -0.00116726       0.00098395       0.00055448 </v>
   <v>      -0.00090384       0.00183573      -0.00145685 </v>
   <v>      -0.00067673       0.00017119      -0.00365390 </v>
   <v>      -0.00032479       0.00192425      -0.00075769 </v>
   <v>       0.00206301       0.00185718      -0.00203492 </v>
   <v>       0.00149325       0.00006734       0.00319273 </v>
   <v>       0.00106191      -0.00176423       0.00231177 </v>
   <v>       0.00237010      -0.00126805       0.00363585 </v>
   <v>      -0.00204816      -0.00090731      -0.00278270 </v>
   <v>      -0.00138221       0.00063426       0.00210755 </v>
   <v>      -0.00265536       0.00100872       0.00039822 </v>
   <v>       0.00220196       0.00165270       0.00395908 </v>
   <v>       0.00267695       0.00009421       0.00248786 </v>
   <v>      -0.00127719      -0.00078426      -0.00018763 </v>
   <v>       0.00116983       0.00002026      -0.00441941 </v>
   <v>      -0.00122480      -0.00351825      -0.00180708 </v>
   <v>      -0.00069682       0.00004266       0.00280254 </v>
   <v>      -0.00309800      -0.00027513      -0.00322637 </v>
   <v>      -0.00192302       0.00057449      -0.00062375 </v>
   <v>      -0.00059590      -0.00127438      -0.00141811 </v>
   <v>       0.00054706       0.00018891       0.00047975 </v>
   <v>       0.00019575      -0.00088563       0.00013969 </v>
   <v>       0.00183710       0.00072251      -0.00296805 </v>
   <v>      -0.00309893      -0.00127123      -0.00030903 </v>
   <v>       0.00300200       0.00209633       0.00203776 </v>
   <v>       0.00101273      -0.00379121       0.00074104 </v>
   <v>      -0.00210408       0.00038364       0.00019321 </v>
   <v>       0.00128328       0.00138399      -0.00047198 </v>
   <v>      -0.00000161       0.00111363       0.00206640 </v>
   <v>      -0.00183455      -0.00353625       0.00002061 </v>
   <v>      -0.00070406      -0.00101403       0.00128026 </v>
   <v>      -0.00023578       0.00113257       0.00033688 </v>
   <v>      -0.00143775      -0.00069084      -0.00205484 </v>
   <v>      -0.00181668      -0.00117652      -0.00285557 </v>
   <v>      -0.00034486       0.00242169       0.00209913 </v>
   <v>       0.00328867      -0.00145234       0.00451997 </v>
   <v>      -0.00258592       0.00063832       0.00024763 </v>
   <v>      -0.00249767      -0.00043830      -0.00099370 </v>
   <v>       0.00090585       0.00225460      -0.00181567 </v>
   <v>      -0.00214318       0.00161423      -0.00057246 </v>
   <v>       0.00223927      -0.00181175       0.00040780 </v>
   <v>      -0.00263109      -0.00062404       0.00148319 </v>
   <v>       0.00244112       0.00156524       0.00092931 </v>
   <v>      -0.00109687       0.00338263       0.00130220 </v>
   <v>      -0.00163265       0.00270969      -0.00021105 </v>
   <v>      -0.00219048      -0.00211331       0.00225770 </v>
  </varray>
  <varray name="stress" >
   <v>      -0.00106451       0.00034102      -0.00585529 </v>
   <v>       0.00034102       0.00103752      -0.00294176 </v>
   <v>      -0.00585530      -0.00294177      -0.15063749 </v>
  </varray>
  <energy>
   <i name="e_fr_energy">   -922.42415722 </i>
   <i name="e_wo_entrp">   -922.42415722 </i>
   <i name="e_0_energy">     -0.00000000 </i>
  </energy>
  <time name="totalsc"> 2886.57 2914.65</time>
  <eigenvalues>
   <array>
    <dimension dim="1">band</dimension>
    <dimension dim="2">kpoint</dimension>
    <dimension dim="3">spin</dimension>
    <field>eigene</field>
    <field>occ</field>
    <set>
     <set comment="spin 1">
      <set comment="kpoint 1">
       <r>  -24.5207    1.0000 </r>
       <r>  -24.5190    1.0000 </r>
       <r>  -24.5073    1.0000 </r>
       <r>  -24.5069    1.0000 </r>
       <r>  -24.5056    1.0000 </r>
       <r>  -24.5052    1.0000 </r>
       <r>  -24.4827    1.0000 </r>
       <r>  -24.4817    1.0000 </r>
       <r>  -24.4807    1.0000 </r>
       <r>  -22.6680    1.0000 </r>
       <r>  -22.6678    1.0000 </r>
       <r>  -22.6344    1.0000 </r>
       <r>  -22.6265    1.0000 </r>
       <r>  -22.6258    1.0000 </r>
       <r>  -22.5917    1.0000 </r>
       <r>  -22.5916    1.0000 </r>
       <r>  -22.5714    1.0000 </r>
       <r>  -22.5713    1.0000 </r>
       <r>  -21.6003    1.0000 </r>
       <r>  -21.5997    1.0000 </r>
       <r>  -21.5831    1.0000 </r>
       <r>  -21.5825    1.0000 </r>
       <r>  -21.5749    1.0000 </r>
       <r>  -21.5524    1.0000 </r>
       <r>  -20.1579    1.0000 </r>
       <r>  -20.1575    1.0000 </r>
       <r>  -20.1037    1.0000 </r>
       <r>  -20.1026    1.0000 </r>
       <r>  -19.9620    1.0000 </r>
       <r>  -19.8463    1.0000 </r>
       <r>  -19.8459    1.0000 </r>
       <r>  -19.5121    1.0000 </r>
       <r>  -19.5117    1.0000 </r>
       <r>  -19.2492    1.0000 </r>
       <r>  -19.2134    1.0000 </r>
       <r>  -19.2133    1.0000 </r>
       <r>  -18.6824    1.0000 </r>
       <r>  -18.6820    1.0000 </r>
       <r>  -18.2671    1.0000 </r>
       <r>  -18.2667    1.0000 </r>
       <r>  -18.1848    1.0000 </r>
       <r>  -17.9496    1.0000 </r>
       <r>  -17.9490    1.0000 </r>
       <r>  -17.8335    1.0000 </r>
       <r>  -17.8330    1.0000 </r>
       <r>  -16.4835    1.0000 </r>
       <r>  -16.4832    1.0000 </r>
       <r>  -16.4601    1.0000 </r>
       <r>  -16.4470    1.0000 </r>
       <r>  -16.4463    1.0000 </r>
       <r>  -16.3682    1.0000 </r>
       <r>  -16.3673    1.0000 </r>
       <r>  -16.2351    1.0000 </r>
       <r>  -16.2342    1.0000 </r>
       <r>  -16.2338    1.0000 </r>
       <r>  -16.2284    1.0000 </r>
       <r>  -16.2162    1.0000 </r>
       <r>  -16.1758    1.0000 </r>
       <r>  -16.1754    1.0000 </r>
       <r>  -16.1748    1.0000 </r>
       <r>  -16.1735    1.0000 </r>
       <r>  -16.1485    1.0000 </r>
       <r>  -16.1470    1.0000 </r>
       <r>  -15.0588    1.0000 </r>
       <r>  -15.0528    1.0000 </r>
       <r>  -14.9371    1.0000 </r>
       <r>  -14.9370    1.0000 </r>
       <r>  -14.7933    1.0000 </r>
       <r>  -14.5976    1.0000 </r>
       <r>  -14.5972    1.0000 </r>
       <r>  -14.4300    1.0000 </r>
       <r>  -14.4296    1.0000 </r>
       <r>  -14.3280    1.0000 </r>
       <r>  -14.3056    1.0000 </r>
       <r>  -14.3052    1.0000 </r>
       <r>  -13.1954    1.0000 </r>
       <r>  -13.1779    1.0000 </r>
       <r>  -13.1775    1.0000 </r>
       <r>  -13.1647    1.0000 </r>
       <r>  -13.1332    1.0000 </r>
       <r>  -13.1329    1.0000 </r>
       <r>  -12.8643    1.0000 </r>
       <r>  -12.8461    1.0000 </r>
       <r>  -12.8456    1.0000 </r>
       <r>  -12.8197    1.0000 </r>
       <r>  -12.7980    1.0000 </r>
       <r>  -12.7763    1.0000 </r>
       <r>  -12.7762    1.0000 </r>
       <r>  -12.7737    1.0000 </r>
       <r>  -12.7732    1.0000 </r>
       <r>  -12.0883    1.0000 </r>
       <r>  -12.0638    1.0000 </r>
       <r>  -12.0618    1.0000 </r>
       <r>  -12.0614    1.0000 </r>
       <r>  -12.0442    1.0000 </r>
       <r>  -12.0436    1.0000 </r>
       <r>  -11.9541    1.0000 </r>
       <r>  -11.9535    1.0000 </r>
       <r>  -11.9330    1.0000 </r>
       <r>  -11.8949    1.0000 </r>
       <r>  -11.8947    1.0000 </r>
       <r>  -11.8068    1.0000 </r>
       <r>  -11.8052    1.0000 </r>
       <r>  -11.8047    1.0000 </r>
       <r>  -11.7016    1.0000 </r>
       <r>  -11.6316    1.0000 </r>
       <r>  -11.6313    1.0000 </r>
       <r>  -11.5057    1.0000 </r>
       <r>  -11.5055    1.0000 </r>
       <r>  -11.3544    1.0000 </r>
       <r>  -11.2979    1.0000 </r>
       <r>  -11.2976    1.0000 </r>
       <r>  -11.2609    1.0000 </r>
       <r>  -11.2598    1.0000 </r>
       <r>  -10.6955    1.0000 </r>
       <r>  -10.6950    1.0000 </r>
       <r>  -10.6508    1.0000 </r>
       <r>  -10.6486    1.0000 </r>
       <r>  -10.6069    1.0000 </r>
       <r>  -10.6064    1.0000 </r>
       <r>  -10.4401    1.0000 </r>
       <r>  -10.4323    1.0000 </r>
       <r>  -10.4317    1.0000 </r>
       <r>  -10.3822    1.0000 </r>
       <r>  -10.3547    1.0000 </r>
       <r>  -10.2796    1.0000 </r>
       <r>  -10.2792    1.0000 </r>
       <r>  -10.2327    1.0000 </r>
       <r>  -10.2320    1.0000 </r>
       <r>  -10.2062    1.0000 </r>
       <r>  -10.1175    1.0000 </r>
       <r>  -10.1174    1.0000 </r>
       <r>   -9.7174    1.0000 </r>
       <r>   -9.6727    1.0000 </r>
       <r>   -9.6719    1.0000 </r>
       <r>   -9.5009    1.0000 </r>
       <r>   -9.5000    1.0000 </r>
       <r>   -9.4946    1.0000 </r>
       <r>   -9.4941    1.0000 </r>
       <r>   -9.4934    1.0000 </r>
       <r>   -9.4927    1.0000 </r>
       <r>   -9.1541    1.0000 </r>
       <r>   -9.1530    1.0000 </r>
       <r>   -9.1102    1.0000 </r>
       <r>   -9.1092    1.0000 </r>
       <r>   -9.0945    1.0000 </r>
       <r>   -9.0484    1.0000 </r>
       <r>   -8.7438    1.0000 </r>
       <r>   -8.7140    1.0000 </r>
       <r>   -8.7136    1.0000 </r>
       <r>   -8.6286    1.0000 </r>
       <r>   -8.5853    1.0000 </r>
       <r>   -8.5838    1.0000 </r>
       <r>   -8.5505    1.0000 </r>
       <r>   -8.5491    1.0000 </r>
       <r>   -8.5466    1.0000 </r>
       <r>   -8.4560    1.0000 </r>
       <r>   -8.4554    1.0000 </r>
       <r>   -8.4137    1.0000 </r>
       <r>   -8.0916    1.0000 </r>
       <r>   -8.0774    1.0000 </r>
       <r>   -8.0768    1.0000 </r>
       <r>   -8.0024    1.0000 </r>
       <r>   -7.9974    1.0000 </r>
       <r>   -7.9904    1.0000 </r>
       <r>   -7.9896    1.0000 </r>
       <r>   -7.9833    1.0000 </r>
       <r>   -7.9823    1.0000 </r>
       <r>   -7.1894    1.0000 </r>
       <r>   -7.1884    1.0000 </r>
       <r>   -7.1746    1.0000 </r>
       <r>   -7.1735    1.0000 </r>
       <r>   -7.1620    1.0000 </r>
       <r>   -7.0965    1.0000 </r>
       <r>   -7.0937    1.0000 </r>
       <r>   -7.0847    1.0000 </r>
       <r>   -6.9995    1.0000 </r>
       <r>   -6.7089    1.0000 </r>
       <r>   -6.6872    1.0000 </r>
       <r>   -6.6854    1.0000 </r>
       <r>   -6.5838    1.0000 </r>
       <r>   -6.5582    1.0000 </r>
       <r>   -6.5469    1.0000 </r>
       <r>   -6.5442    1.0000 </r>
       <r>   -6.4451    1.0000 </r>
       <r>   -6.4417    1.0000 </r>
       <r>   -6.4172    1.0000 </r>
       <r>   -6.4138    1.0000 </r>
       <r>   -6.4117    1.0000 </r>
       <r>   -6.3898    1.0000 </r>
       <r>   -6.3869    1.0000 </r>
       <r>   -6.3108    1.0000 </r>
       <r>   -6.2887    1.0000 </r>
       <r>   -6.2879    1.0000 </r>
       <r>   -6.2324    1.0000 </r>
       <r>   -6.2283    1.0000 </r>
       <r>   -6.2267    1.0000 </r>
       <r>   -6.1240    1.0000 </r>
       <r>   -5.7072    1.0000 </r>
       <r>   -5.6879    1.0000 </r>
       <r>   -5.6124    1.0000 </r>
       <r>   -5.6123    1.0000 </r>
       <r>   -5.5918    1.0000 </r>
       <r>   -5.5913    1.0000 </r>
       <r>   -5.5382    1.0000 </r>
       <r>   -5.5285    1.0000 </r>
       <r>   -5.5271    1.0000 </r>
       <r>   -2.5557    0.0000 </r>
       <r>   -2.4684    0.0000 </r>
       <r>   -2.4453    0.0000 </r>
       <r>   -2.4442    0.0000 </r>
       <r>   -2.3232    0.0000 </r>
       <r>   -2.2864    0.0000 </r>
       <r>   -2.2855    0.0000 </r>
       <r>   -2.2481    0.0000 </r>
       <r>   -2.2472    0.0000 </r>
       <r>   -1.9443    0.0000 </r>
       <r>   -1.9324    0.0000 </r>
       <r>   -1.7896    0.0000 </r>
       <r>   -1.7860    0.0000 </r>
       <r>   -1.6897    0.0000 </r>
       <r>   -1.6864    0.0000 </r>
       <r>   -1.6455    0.0000 </r>
       <r>   -1.5741    0.0000 </r>
       <r>   -1.5715    0.0000 </r>
       <r>   -1.4958    0.0000 </r>
       <r>   -1.4952    0.0000 </r>
       <r>   -1.4837    0.0000 </r>
       <r>   -1.3820    0.0000 </r>
       <r>   -1.3796    0.0000 </r>
       <r>   -1.3721    0.0000 </r>
       <r>   -1.1948    0.0000 </r>
       <r>   -1.1932    0.0000 </r>
       <r>   -1.1108    0.0000 </r>
       <r>   -1.0818    0.0000 </r>
       <r>   -1.0808    0.0000 </r>
       <r>   -1.0151    0.0000 </r>
       <r>   -0.3558    0.0000 </r>
       <r>   -0.2510    0.0000 </r>
       <r>   -0.1389    0.0000 </r>
       <r>   -0.1381    0.0000 </r>
       <r>    0.0786    0.0000 </r>
       <r>    0.0801    0.0000 </r>
       <r>    0.0945    0.0000 </r>
       <r>    0.1486    0.0000 </r>
       <r>    0.2619    0.0000 </r>
       <r>    0.2665    0.0000 </r>
       <r>    0.2677    0.0000 </r>
       <r>    0.3453    0.0000 </r>
       <r>    0.3590    0.0000 </r>
       <r>    0.3844    0.0000 </r>
       <r>    0.3857    0.0000 </r>
       <r>    0.4223    0.0000 </r>
       <r>    0.4904    0.0000 </r>
       <r>    0.4908    0.0000 </r>
       <r>    0.5359    0.0000 </r>
       <r>    0.5444    0.0000 </r>
       <r>    0.5450    0.0000 </r>
       <r>    0.6182    0.0000 </r>
       <r>    0.6583    0.0000 </r>
       <r>    0.6596    0.0000 </r>
       <r>    0.7331    0.0000 </r>
       <r>    0.7935    0.0000 </r>
       <r>    0.7950    0.0000 </r>
       <r>    0.8296    0.0000 </r>
       <r>    0.8421    0.0000 </r>
       <r>    0.8626    0.0000 </r>
       <r>    0.8644    0.0000 </r>
       <r>    0.8836    0.0000 </r>
       <r>    0.8847    0.0000 </r>
       <r>    0.9096    0.0000 </r>
       <r>    0.9129    0.0000 </r>
      </set>
      <set comment="kpoint 2">
       <r>  -24.5207    1.0000 </r>
       <r>  -24.5190    1.0000 </r>
       <r>  -24.5073    1.0000 </r>
       <r>  -24.5069    1.0000 </r>
       <r>  -24.5056    1.0000 </r>
       <r>  -24.5052    1.0000 </r>
       <r>  -24.4827    1.0000 </r>
       <r>  -24.4817    1.0000 </r>
       <r>  -24.4807    1.0000 </r>
       <r>  -22.6680    1.0000 </r>
       <r>  -22.6678    1.0000 </r>
       <r>  -22.6347    1.0000 </r>
       <r>  -22.6263    1.0000 </r>
       <r>  -22.6258    1.0000 </r>
       <r>  -22.5918    1.0000 </r>
       <r>  -22.5916    1.0000 </r>
       <r>  -22.5714    1.0000 </r>
       <r>  -22.5713    1.0000 </r>
       <r>  -21.6003    1.0000 </r>
       <r>  -21.5997    1.0000 </r>
       <r>  -21.5831    1.0000 </r>
       <r>  -21.5825    1.0000 </r>
       <r>  -21.5748    1.0000 </r>
       <r>  -21.5524    1.0000 </r>
       <r>  -20.1577    1.0000 </r>
       <r>  -20.1575    1.0000 </r>
       <r>  -20.1037    1.0000 </r>
       <r>  -20.1026    1.0000 </r>
       <r>  -19.9630    1.0000 </r>
       <r>  -19.8459    1.0000 </r>
       <r>  -19.8452    1.0000 </r>
       <r>  -19.5126    1.0000 </r>
       <r>  -19.5117    1.0000 </r>
       <r>  -19.2491    1.0000 </r>
       <r>  -19.2134    1.0000 </r>
       <r>  -19.2134    1.0000 </r>
       <r>  -18.6822    1.0000 </r>
       <r>  -18.6817    1.0000 </r>
       <r>  -18.2696    1.0000 </r>
       <r>  -18.2671    1.0000 </r>
       <r>  -18.1820    1.0000 </r>
       <r>  -17.9496    1.0000 </r>
       <r>  -17.9490    1.0000 </r>
       <r>  -17.8337    1.0000 </r>
       <r>  -17.8330    1.0000 </r>
       <r>  -16.4835    1.0000 </r>
       <r>  -16.4832    1.0000 </r>
       <r>  -16.4603    1.0000 </r>
       <r>  -16.4470    1.0000 </r>
[...]
       <r>   -19.2588     0.3157    66.0295 </r>
       <r>   -19.1654    60.2963    72.0000 </r>
       <r>   -19.0721     0.0000    72.0000 </r>
       <r>   -18.9787     0.0000    72.0000 </r>
       <r>   -18.8853     0.0000    72.0000 </r>
       <r>   -18.7920     0.0000    72.0000 </r>
       <r>   -18.6986     0.2271    72.0212 </r>
       <r>   -18.6053    31.2257    74.9363 </r>
       <r>   -18.5119    12.6676    76.2171 </r>
       <r>   -18.4186     9.1700    77.1907 </r>
       <r>   -18.3252     3.6170    77.6044 </r>
       <r>   -18.2318    24.9903    80.0000 </r>
       <r>   -18.1385     3.7435    80.3495 </r>
       <r>   -18.0451     3.9354    80.8007 </r>
       <r>   -17.9518    27.0933    83.3963 </r>
       <r>   -17.8584    13.1588    87.3957 </r>
       <r>   -17.7651    26.0416    90.0000 </r>
       <r>   -17.6717     0.0000    90.0000 </r>
       <r>   -17.5783     0.0000    90.0000 </r>
       <r>   -17.4850     0.0000    90.0000 </r>
       <r>   -17.3916     0.0000    90.0000 </r>
       <r>   -17.2983     0.0000    90.0000 </r>
       <r>   -17.2049     0.0000    90.0000 </r>
       <r>   -17.1116     0.0000    90.0000 </r>
       <r>   -17.0182     0.0000    90.0000 </r>
       <r>   -16.9248     0.0000    90.0000 </r>
       <r>   -16.8315     0.0000    90.0000 </r>
       <r>   -16.7381     0.0000    90.0000 </r>
       <r>   -16.6448     0.0000    90.0000 </r>
       <r>   -16.5514     0.0000    90.0000 </r>
       <r>   -16.4581    63.6566    95.9428 </r>
       <r>   -16.3647    54.2057   103.2303 </r>
       <r>   -16.2714     0.0000   104.0000 </r>
       <r>   -16.1780   135.4594   116.6461 </r>
       <r>   -16.0846    42.8459   126.0000 </r>
       <r>   -15.9913     0.0000   126.0000 </r>
       <r>   -15.8979     0.0000   126.0000 </r>
       <r>   -15.8046     0.0000   126.0000 </r>
       <r>   -15.7112     0.0000   126.0000 </r>
       <r>   -15.6179     0.0000   126.0000 </r>
       <r>   -15.5245     0.0000   126.0000 </r>
       <r>   -15.4311     0.0000   126.0000 </r>
       <r>   -15.3378     0.0000   126.0000 </r>
       <r>   -15.2444     0.0000   126.0000 </r>
       <r>   -15.1511     0.0000   126.0000 </r>
       <r>   -15.0577    16.9802   127.5852 </r>
       <r>   -14.9644     0.0012   130.0001 </r>
       <r>   -14.8710    45.8578   134.2813 </r>
       <r>   -14.7776    13.1376   135.9977 </r>
       <r>   -14.6843     0.0000   136.0000 </r>
       <r>   -14.5909    21.3904   137.9969 </r>
       <r>   -14.4976    17.0012   140.0880 </r>
       <r>   -14.4042    38.5185   143.9986 </r>
       <r>   -14.3109    33.6533   147.1418 </r>
       <r>   -14.2175     0.0000   150.0000 </r>
       <r>   -14.1241     0.0000   150.0000 </r>
       <r>   -14.0308     0.0000   150.0000 </r>
       <r>   -13.9374     0.0000   150.0000 </r>
       <r>   -13.8441     0.0000   150.0000 </r>
       <r>   -13.7507     0.0000   150.0000 </r>
       <r>   -13.6574     0.0000   150.0000 </r>
       <r>   -13.5640     0.0000   150.0000 </r>
       <r>   -13.4706     0.0000   150.0000 </r>
       <r>   -13.3773     0.0000   150.0000 </r>
       <r>   -13.2839     0.0000   150.0000 </r>
       <r>   -13.1906    19.0602   151.7794 </r>
       <r>   -13.0972    64.2691   162.0000 </r>
       <r>   -13.0039     0.0000   162.0000 </r>
       <r>   -12.9105     0.0000   162.0000 </r>
       <r>   -12.8171    71.6058   168.6849 </r>
       <r>   -12.7238    96.6539   180.0000 </r>
       <r>   -12.6304     0.0000   180.0000 </r>
       <r>   -12.5371     0.0000   180.0000 </r>
       <r>   -12.4437     0.0000   180.0000 </r>
       <r>   -12.3504     0.0000   180.0000 </r>
       <r>   -12.2570     0.0000   180.0000 </r>
       <r>   -12.1636     0.0000   180.0000 </r>
       <r>   -12.0703    37.4805   183.4991 </r>
       <r>   -11.9769    58.8447   192.0031 </r>
       <r>   -11.8836    93.1340   200.6978 </r>
       <r>   -11.7902    46.6337   206.2592 </r>
       <r>   -11.6969    36.3148   209.8922 </r>
       <r>   -11.6035    31.1770   212.9106 </r>
       <r>   -11.5101    31.6901   216.3953 </r>
       <r>   -11.4168     0.0000   218.0000 </r>
       <r>   -11.3234    18.2674   219.7054 </r>
       <r>   -11.2301    75.2901   228.0000 </r>
       <r>   -11.1367     0.0000   228.0000 </r>
       <r>   -11.0434     0.0000   228.0000 </r>
       <r>   -10.9500     0.0000   228.0000 </r>
       <r>   -10.8566     0.0000   228.0000 </r>
       <r>   -10.7633     0.0000   228.0000 </r>
       <r>   -10.6699    36.5197   231.4094 </r>
       <r>   -10.5766    76.3019   240.0000 </r>
       <r>   -10.4832     0.0000   240.0000 </r>
       <r>   -10.3899    52.8664   244.9354 </r>
       <r>   -10.2965    60.3168   252.5652 </r>
       <r>   -10.2032    49.3435   258.1827 </r>
       <r>   -10.1098    54.8111   263.6850 </r>
       <r>   -10.0164     0.0000   264.0000 </r>
       <r>    -9.9231     0.0000   264.0000 </r>
       <r>    -9.8297     0.0000   264.0000 </r>
       <r>    -9.7364     0.0125   264.0012 </r>
       <r>    -9.6430    64.2564   269.9999 </r>
       <r>    -9.5497     0.0000   270.0000 </r>
       <r>    -9.4563   128.5389   282.0000 </r>
       <r>    -9.3629     0.0000   282.0000 </r>
       <r>    -9.2696     0.0000   282.0000 </r>
       <r>    -9.1762     0.0152   282.0014 </r>
       <r>    -9.0829    92.2039   290.6093 </r>
       <r>    -8.9895    27.0497   294.0000 </r>
       <r>    -8.8962     0.0000   294.0000 </r>
       <r>    -8.8028     0.0000   294.0000 </r>
       <r>    -8.7094    37.0696   297.4607 </r>
       <r>    -8.6161    46.7835   303.3734 </r>
       <r>    -8.5227    60.8017   309.2438 </r>
       <r>    -8.4294    76.8357   317.1457 </r>
       <r>    -8.3360     3.5075   318.0000 </r>
       <r>    -8.2427     0.0000   318.0000 </r>
       <r>    -8.1493     0.0000   318.0000 </r>
       <r>    -8.0559    64.2329   323.9966 </r>
       <r>    -7.9626   128.4710   335.9937 </r>
       <r>    -7.8692     0.0000   336.0000 </r>
       <r>    -7.7759     0.0000   336.0000 </r>
       <r>    -7.6825     0.0000   336.0000 </r>
       <r>    -7.5892     0.0000   336.0000 </r>
       <r>    -7.4958     0.0000   336.0000 </r>
       <r>    -7.4024     0.0000   336.0000 </r>
       <r>    -7.3091     0.0000   336.0000 </r>
       <r>    -7.2157     0.0020   336.0002 </r>
       <r>    -7.1224   118.2681   347.0413 </r>
       <r>    -7.0290    49.6919   352.1420 </r>
       <r>    -6.9357     9.9655   354.0000 </r>
       <r>    -6.8423     0.0000   354.0000 </r>
       <r>    -6.7489     0.0000   354.0000 </r>
       <r>    -6.6556    64.2690   360.0000 </r>
       <r>    -6.5622    35.8183   363.3439 </r>
       <r>    -6.4689    44.3802   369.3262 </r>
       <r>    -6.3755   114.4308   380.2850 </r>
       <r>    -6.2822    64.7220   387.0454 </r>
       <r>    -6.1888    46.8827   392.7499 </r>
       <r>    -6.0954    32.0849   396.0000 </r>
       <r>    -6.0021     0.0000   396.0000 </r>
       <r>    -5.9087     0.0000   396.0000 </r>
       <r>    -5.8154     0.0000   396.0000 </r>
       <r>    -5.7220     0.1317   396.0123 </r>
       <r>    -5.6287    43.3491   400.0592 </r>
       <r>    -5.5353    96.7591   409.8299 </r>
       <r>    -5.4419     0.0000   414.0000 </r>
       <r>    -5.3486     0.0000   414.0000 </r>
       <r>    -5.2552     0.0000   414.0000 </r>
       <r>    -5.1619     0.0000   414.0000 </r>
       <r>    -5.0685     0.0000   414.0000 </r>
       <r>    -4.9752     0.0000   414.0000 </r>
       <r>    -4.8818     0.0000   414.0000 </r>
       <r>    -4.7884     0.0000   414.0000 </r>
       <r>    -4.6951     0.0000   414.0000 </r>
       <r>    -4.6017     0.0000   414.0000 </r>
       <r>    -4.5084     0.0000   414.0000 </r>
       <r>    -4.4150     0.0000   414.0000 </r>
       <r>    -4.3217     0.0000   414.0000 </r>
       <r>    -4.2283     0.0000   414.0000 </r>
       <r>    -4.1350     0.0000   414.0000 </r>
       <r>    -4.0416     0.0000   414.0000 </r>
       <r>    -3.9482     0.0000   414.0000 </r>
       <r>    -3.8549     0.0000   414.0000 </r>
       <r>    -3.7615     0.0000   414.0000 </r>
       <r>    -3.6682     0.0000   414.0000 </r>
       <r>    -3.5748     0.0000   414.0000 </r>
       <r>    -3.4815     0.0000   414.0000 </r>
       <r>    -3.3881     0.0000   414.0000 </r>
       <r>    -3.2947     0.0000   414.0000 </r>
       <r>    -3.2014     0.0000   414.0000 </r>
       <r>    -3.1080     0.0000   414.0000 </r>
       <r>    -3.0147     0.0000   414.0000 </r>
       <r>    -2.9213     0.0000   414.0000 </r>
       <r>    -2.8280     0.0000   414.0000 </r>
       <r>    -2.7346     0.0000   414.0000 </r>
       <r>    -2.6412     0.0000   414.0000 </r>
       <r>    -2.5479     7.3434   414.6856 </r>
       <r>    -2.4545    27.5903   418.2139 </r>
       <r>    -2.3612    25.5288   422.5517 </r>
       <r>    -2.2678    44.1732   427.2591 </r>
       <r>    -2.1745    19.4695   432.0000 </r>
       <r>    -2.0811     0.0000   432.0000 </r>
       <r>    -1.9877     0.0000   432.0000 </r>
       <r>    -1.8944    42.8463   436.0000 </r>
       <r>    -1.8010     0.3888   436.0363 </r>
       <r>    -1.7077    55.6014   441.5134 </r>
       <r>    -1.6143    31.1893   445.0295 </r>
       <r>    -1.5210    44.9410   450.0001 </r>
       <r>    -1.4276    64.3810   456.0105 </r>
       <r>    -1.3342    64.1569   462.0000 </r>
       <r>    -1.2409     0.0000   462.0000 </r>
       <r>    -1.1475    52.5885   466.9095 </r>
       <r>    -1.0542    39.5305   470.9919 </r>
       <r>    -0.9608    23.5108   474.0000 </r>
       <r>    -0.8675     0.0000   474.0000 </r>
       <r>    -0.7741     0.0000   474.0000 </r>
       <r>    -0.6807     0.0000   474.0000 </r>
       <r>    -0.5874     0.0000   474.0000 </r>
       <r>    -0.4940     0.0000   474.0000 </r>
       <r>    -0.4007     0.0000   474.0000 </r>
       <r>    -0.3073    26.9746   476.5183 </r>
       <r>    -0.2140     9.9785   478.0000 </r>
       <r>    -0.1206    26.0710   480.4339 </r>
       <r>    -0.0272    15.6712   482.0642 </r>
       <r>     0.0661    15.1402   483.7147 </r>
       <r>     0.1595    50.6019   488.7637 </r>
       <r>     0.2528    42.4526   494.1728 </r>
       <r>     0.3462    31.5740   498.1914 </r>
       <r>     0.4395    52.5984   504.9110 </r>
       <r>     0.5329    45.4768   509.6811 </r>
       <r>     0.6263    59.3652   516.6476 </r>
       <r>     0.7196    61.3179   523.0617 </r>
       <r>     0.8130    73.0538   531.3293 </r>
       <r>     0.9063    95.7090   541.2088 </r>
       <r>     0.9997    16.6353   544.0000 </r>
       <r>     1.0930     0.0000   544.0000 </r>
       <r>     1.1864     0.0000   544.0000 </r>
       <r>     1.2798     0.0000   544.0000 </r>
       <r>     1.3731     0.0000   544.0000 </r>
       <r>     1.4665     0.0000   544.0000 </r>
       <r>     1.5598     0.0000   544.0000 </r>
       <r>     1.6532     0.0000   544.0000 </r>
       <r>     1.7465     0.0000   544.0000 </r>
       <r>     1.8399     0.0000   544.0000 </r>
       <r>     1.9333     0.0000   544.0000 </r>
       <r>     2.0266     0.0000   544.0000 </r>
       <r>     2.1200     0.0000   544.0000 </r>
       <r>     2.2133     0.0000   544.0000 </r>
      </set>
     </set>
    </array>
   </total>
  </dos>
 </calculation>
 <structure name="finalpos" >
  <crystal>
   <varray name="basis" >
    <v>      30.38015135      -0.00178519       0.00000000 </v>
    <v>     -15.19162091      26.31924263       0.00000000 </v>
    <v>       0.00000000       0.00000000      20.00000000 </v>
   </varray>
   <i name="volume">  15991.10909325 </i>
   <varray name="rec_basis" >
    <v>       0.03291734       0.01900008       0.00000000 </v>
    <v>       0.00000223       0.03799630       0.00000000 </v>
    <v>       0.00000000       0.00000000       0.05000000 </v>
   </varray>
  </crystal>
  <varray name="positions" >
   <v>       0.63787871       0.12868370       0.51716555 </v>
   <v>       0.49577570       0.12873458       0.51446145 </v>
   <v>       0.53192718       0.05859463       0.40757606 </v>
   <v>       0.63763114       0.27016912       0.51387892 </v>
   <v>       0.53068823       0.23821966       0.62216391 </v>
   <v>       0.71293219       0.23837628       0.40746551 </v>
   <v>       0.78745941       0.31234251       0.62188687 </v>
   <v>       0.52973223       0.31254452       0.40820265 </v>
   <v>       0.49586280       0.38778429       0.51760023 </v>
   <v>       0.63808968       0.52978517       0.51548661 </v>
   <v>       0.63760674       0.38792368       0.51522773 </v>
   <v>       0.89696240       0.52973959       0.51773384 </v>
   <v>       0.89695593       0.38765647       0.51435617 </v>
   <v>       0.75545271       0.38799515       0.51445113 </v>
   <v>       0.38251508       0.90203648       0.51531222 </v>
   <v>       0.52471505       0.90218344       0.51247662 </v>
   <v>       0.38299383       0.76065082       0.51653998 </v>
   <v>       0.52493211       0.64331226       0.51595194 </v>
   <v>       0.38276556       0.50128941       0.51261281 </v>
   <v>       0.38316091       0.64309758       0.51609442 </v>
   <v>       0.12371529       0.50115395       0.51528010 </v>
   <v>       0.12354954       0.64315716       0.51254688 </v>
   <v>       0.26513500       0.64303324       0.51609043 </v>
   <v>       0.48818084       0.97225769       0.62182670 </v>
   <v>       0.48928955       0.53778789       0.62253181 </v>
   <v>       0.05354151       0.53751124       0.62202962 </v>
   <v>       0.71303379       0.49481329       0.62313343 </v>
   <v>       0.49114824       0.79302043       0.62253095 </v>
   <v>       0.30785682       0.53614998       0.62270714 </v>
   <v>       0.23283610       0.71842800       0.62226241 </v>
   <v>       0.53200549       0.49376993       0.40853459 </v>
   <v>       0.96705884       0.49325573       0.40784131 </v>
   <v>       0.78753231       0.49599473       0.40844602 </v>
   <v>       0.49018688       0.71830923       0.40813580 </v>
   <v>       0.23304099       0.53511542       0.40833670 </v>
   <v>       0.30761130       0.79261201       0.40804016 </v>
   <v>       0.61745004       0.14970393       0.51584904 </v>
   <v>       0.56411344       0.12328567       0.51551560 </v>
   <v>       0.53724305       0.14974117       0.51466200 </v>
   <v>       0.53577151       0.06665762       0.51576736 </v>
   <v>       0.52205928       0.03894517       0.45575272 </v>
   <v>       0.56368561       0.20282710       0.51409252 </v>
   <v>       0.61686907       0.22868627       0.51432076 </v>
   <v>       0.64414659       0.20279106       0.51530449 </v>
   <v>       0.54113888       0.23658526       0.51412129 </v>
   <v>       0.53474567       0.25701684       0.57411598 </v>
   <v>       0.70046675       0.23653546       0.51543640 </v>
   <v>       0.72747902       0.25710919       0.45561187 </v>
   <v>       0.54110313       0.32511883       0.51610213 </v>
   <v>       0.78903000       0.32510814       0.51400385 </v>
   <v>       0.76862839       0.29791814       0.57377384 </v>
   <v>       0.53425630       0.29806248       0.45620683 </v>
   <v>       0.64422209       0.46186473       0.51532055 </v>
   <v>       0.61688295       0.40869572       0.51553092 </v>
   <v>       0.56369391       0.38144773       0.51615076 </v>
   <v>       0.53732331       0.40818461       0.51657117 </v>
   <v>       0.56426777       0.46151347       0.51650765 </v>
   <v>       0.61759762       0.48832973       0.51576503 </v>
   <v>       0.82282230       0.38141794       0.51431380 </v>
   <v>       0.79695163       0.40872298       0.51477809 </v>
   <v>       0.82285053       0.46188857       0.51582425 </v>
   <v>       0.87594822       0.48830114       0.51632002 </v>
   <v>       0.90239492       0.46141795       0.51581566 </v>
   <v>       0.87593462       0.40809699       0.51477269 </v>
   <v>       0.45688614       0.82805819       0.51485365 </v>
   <v>       0.40369821       0.80213470       0.51591232 </v>
   <v>       0.37635160       0.82797202       0.51593753 </v>
   <v>       0.40299998       0.88106094       0.51513089 </v>
   <v>       0.45633231       0.90755303       0.51408237 </v>
   <v>       0.48326207       0.88114834       0.51393954 </v>
   <v>       0.37656026       0.56916216       0.51470302 </v>
   <v>       0.40388837       0.62233197       0.51569079 </v>
   <v>       0.45707887       0.64959716       0.51601121 </v>
   <v>       0.48346997       0.62289674       0.51554780 </v>
   <v>       0.45657027       0.56958377       0.51449952 </v>
   <v>       0.40322928       0.54272923       0.51404490 </v>
   <v>       0.19769409       0.64947753       0.51449764 </v>
   <v>       0.22363933       0.62224834       0.51556232 </v>
   <v>       0.19780809       0.56907667       0.51578242 </v>
   <v>       0.14470226       0.54260884       0.51505270 </v>
   <v>       0.11820268       0.56943666       0.51410609 </v>
   <v>       0.14459543       0.62275408       0.51386543 </v>
   <v>       0.49820748       0.99190040       0.57364190 </v>
   <v>       0.49896584       0.52771955       0.57441414 </v>
   <v>       0.03387395       0.52750540       0.57385843 </v>
   <v>       0.70052783       0.48441712       0.51515681 </v>
   <v>       0.72757825       0.49074998       0.57492749 </v>
   <v>       0.78910896       0.48445049       0.51624871 </v>
   <v>       0.47955394       0.79438856       0.51471283 </v>
   <v>       0.48657121       0.77411427       0.57443311 </v>
   <v>       0.47970560       0.70590515       0.51613541 </v>
   <v>       0.32022748       0.54660192       0.51471010 </v>
   <v>       0.29326398       0.54027066       0.57456003 </v>
   <v>       0.23161831       0.54656949       0.51616132 </v>
   <v>       0.23138552       0.70578618       0.51435506 </v>
   <v>       0.25175041       0.73287064       0.57419154 </v>
   <v>       0.32001772       0.79424877       0.51602945 </v>
   <v>       0.48458246       0.96418483       0.51363106 </v>
   <v>       0.53609091       0.48997313       0.51674297 </v>
   <v>       0.52219625       0.50369743       0.45665880 </v>
   <v>       0.48492887       0.54130044       0.51432325 </v>
   <v>       0.95904348       0.48976626       0.51603878 </v>
   <v>       0.98673292       0.50334938       0.45601222 </v>
   <v>       0.06156178       0.54109599       0.51382854 </v>
   <v>       0.76869802       0.49139771       0.45660870 </v>
   <v>       0.48604250       0.73287257       0.45628089 </v>
   <v>       0.25195276       0.53963980       0.45642160 </v>
   <v>       0.29300498       0.77382778       0.45613488 </v>
   <v>       0.52362152       0.04273905       0.57517906 </v>
   <v>       0.72345528       0.25517963       0.57436241 </v>
   <v>       0.53671085       0.25533218       0.45531004 </v>
   <v>       0.53715344       0.30216008       0.57494656 </v>
   <v>       0.77019971       0.30229230       0.45502399 </v>
   <v>       0.52438697       0.50229170       0.57610478 </v>
   <v>       0.98302810       0.50211121       0.57541275 </v>
   <v>       0.77033380       0.48833519       0.57531520 </v>
   <v>       0.48424027       0.72898223       0.57503493 </v>
   <v>       0.25049907       0.54267309       0.57514900 </v>
   <v>       0.29695727       0.77556153       0.57492318 </v>
   <v>       0.49667114       0.98810201       0.45418820 </v>
   <v>       0.49682851       0.52917602       0.45497325 </v>
   <v>       0.03759094       0.52887263       0.45444888 </v>
   <v>       0.72351935       0.48896493       0.45618097 </v>
   <v>       0.48354156       0.77555634       0.45574394 </v>
   <v>       0.29713405       0.54207138       0.45582999 </v>
   <v>       0.25021381       0.72870109       0.45542035 </v>
  </varray>
 </structure>
</modeling>
