<?xml version="1.0" encoding="ISO-8859-1"?>
<modeling>
 <generator>
  <i name="program" type="string">vasp </i>
  <i name="version" type="string">5.4.4.18Apr17-6-g9f103f2a35  </i>
  <i name="subversion" type="string">(build Jun 07 2020 16:50:00) complex            parallel </i>
  <i name="platform" type="string">LinuxIFC </i>
  <i name="date" type="string">2023 02 15 </i>
  <i name="time" type="string">13:53:21 </i>
 </generator>
 <incar>
  <i type="string" name="SYSTEM">Simulation for cell shape cell volume r</i>
  <i type="int" name="ISTART">     1</i>
  <i type="string" name="PREC">high</i>
  <i type="string" name="ALGO">48</i>
  <i type="int" name="ICHARG">    11</i>
  <i type="int" name="NELM">   200</i>
  <i type="int" name="IBRION">    -1</i>
  <i name="EDIFF">      0.00001000</i>
  <i name="EDIFFG">     -0.01000000</i>
  <i type="int" name="NSW">     0</i>
  <i type="int" name="ISIF">     2</i>
  <i name="ENCUT">    500.00000000</i>
  <i name="POTIM">      0.30000000</i>
  <i type="string" name="LREAL">A</i>
  <i type="int" name="ISMEAR">     0</i>
  <i name="SIGMA">      0.01000000</i>
  <i type="int" name="NWRITE">     0</i>
  <i type="logical" name="LWAVE"> F  </i>
  <i type="logical" name="LCHARG"> F  </i>
  <v type="int" name="KPOINT_BSE">    -1     0     0     0</v>
  <i type="int" name="NELM">   200</i>
  <i type="string" name="GGA">PE</i>
 </incar>
 <structure name="primitive_cell" >
  <crystal>
   <varray name="basis" >
    <v>      14.61708344      -0.14655336       0.00000000 </v>
    <v>      -7.44105557      12.88713173       0.00000000 </v>
    <v>       0.00000000       0.00000000      20.00000000 </v>
   </varray>
   <i name="volume">   3745.63536032 </i>
   <varray name="rec_basis" >
    <v>       0.06881146       0.03973187       0.00000000 </v>
    <v>       0.00078253       0.07804862       0.00000000 </v>
    <v>       0.00000000       0.00000000       0.05000000 </v>
   </varray>
  </crystal>
  <varray name="positions" >
   <v>       0.48996043       0.44235666       0.44186864 </v>
   <v>       0.43639481       0.49305153       0.44480044 </v>
   <v>      -0.42200180       0.46807491       0.48384727 </v>
   <v>       0.45286107       0.35909610       0.38852022 </v>
   <v>       0.47319489      -0.42446158       0.48602518 </v>
   <v>      -0.38347849      -0.44698117      -0.47659876 </v>
   <v>      -0.40213173       0.42747668       0.35682966 </v>
   <v>       0.36167695       0.28681891       0.38312512 </v>
   <v>      -0.47188094       0.36882095       0.34447524 </v>
   <v>      -0.36895716       0.40586542       0.48645472 </v>
   <v>      -0.43351570      -0.39326531      -0.47652112 </v>
   <v>       0.48478638       0.25872726       0.49374606 </v>
   <v>      -0.42916734       0.29639848       0.48918103 </v>
   <v>       0.41376438      -0.36868472       0.48987229 </v>
   <v>      -0.25795049       0.45695712       0.48618287 </v>
   <v>      -0.40011506      -0.32425302      -0.44440827 </v>
   <v>       0.26039742       0.49025397       0.48055484 </v>
   <v>       0.36621424       0.16299660       0.37220232 </v>
   <v>      -0.21110170      -0.45805769       0.48551061 </v>
   <v>       0.30264400      -0.42512747       0.48612827 </v>
   <v>       0.40588793       0.12668507       0.38291378 </v>
   <v>      -0.37889587       0.23738411       0.49044581 </v>
   <v>       0.31512922       0.09084505       0.48154290 </v>
   <v>       0.38416527       0.09244274       0.44636430 </v>
   <v>       0.46800794      -0.25951366       0.49569581 </v>
   <v>      -0.44530865      -0.21578870       0.49556284 </v>
   <v>      -0.20629966       0.39916615       0.48686433 </v>
   <v>      -0.26725929       0.29011648       0.48969513 </v>
   <v>      -0.43746188       0.12166019       0.49342134 </v>
   <v>       0.45656407       0.05505583       0.47149697 </v>
   <v>       0.24525990      -0.37312172       0.48965460 </v>
   <v>       0.41175323      -0.20630120       0.49650721 </v>
   <v>      -0.08874194       0.45626978       0.48573354 </v>
   <v>       0.07975515       0.47182647       0.45972472 </v>
   <v>      -0.22990222       0.24293718       0.49361857 </v>
   <v>       0.30044308      -0.26403094       0.49399288 </v>
   <v>      -0.03960223      -0.44804366      -0.48610717 </v>
   <v>       0.12790544      -0.43299948       0.48794678 </v>
   <v>      -0.38291178       0.07814487      -0.48210628 </v>
   <v>       0.41009658      -0.04861714       0.47356055 </v>
   <v>      -0.38279414      -0.05664555      -0.45873524 </v>
   <v>      -0.11963039       0.31380143       0.36373911 </v>
   <v>      -0.06474875       0.24106745       0.44270436 </v>
   <v>       0.46589922      -0.09114615       0.49685386 </v>
   <v>      -0.02630109       0.41802066       0.45752778 </v>
   <v>       0.25869261      -0.22076262       0.49328711 </v>
   <v>      -0.07161951       0.31432908       0.42213309 </v>
   <v>      -0.14649994       0.24470271       0.34357313 </v>
   <v>      -0.42965893      -0.02531178      -0.48014221 </v>
   <v>       0.06593087      -0.39375033      -0.48525400 </v>
   <v>       0.10264106      -0.31701394      -0.46152346 </v>
  </varray>
 </structure>
 <varray name="primitive_index" >
  <v type="int" >        1 </v>
  <v type="int" >       42 </v>
  <v type="int" >       22 </v>
  <v type="int" >       24 </v>
  <v type="int" >       23 </v>
  <v type="int" >       45 </v>
  <v type="int" >       36 </v>
  <v type="int" >       46 </v>
  <v type="int" >       51 </v>
  <v type="int" >        2 </v>
  <v type="int" >       27 </v>
  <v type="int" >       30 </v>
  <v type="int" >        3 </v>
  <v type="int" >        8 </v>
  <v type="int" >        7 </v>
  <v type="int" >       39 </v>
  <v type="int" >       32 </v>
  <v type="int" >       35 </v>
  <v type="int" >       29 </v>
  <v type="int" >       13 </v>
  <v type="int" >       50 </v>
  <v type="int" >        4 </v>
  <v type="int" >       49 </v>
  <v type="int" >       21 </v>
  <v type="int" >        9 </v>
  <v type="int" >       33 </v>
  <v type="int" >        6 </v>
  <v type="int" >        5 </v>
  <v type="int" >       18 </v>
  <v type="int" >       20 </v>
  <v type="int" >       12 </v>
  <v type="int" >       10 </v>
  <v type="int" >       14 </v>
  <v type="int" >       40 </v>
  <v type="int" >       28 </v>
  <v type="int" >       11 </v>
  <v type="int" >       43 </v>
  <v type="int" >       15 </v>
  <v type="int" >       44 </v>
  <v type="int" >       41 </v>
  <v type="int" >       38 </v>
  <v type="int" >       48 </v>
  <v type="int" >       47 </v>
  <v type="int" >       19 </v>
  <v type="int" >       16 </v>
  <v type="int" >       31 </v>
  <v type="int" >       17 </v>
  <v type="int" >       34 </v>
  <v type="int" >       26 </v>
  <v type="int" >       25 </v>
  <v type="int" >       37 </v>
 </varray>
 <kpoints>
  <generation param="listgenerated">
   <i name="divisions" type="int">      20 </i>
   <v>       0.00000000       0.00000000       0.00000000 </v>
   <v>       0.50000000      -0.50000000       0.00000000 </v>
   <v>       0.66251564      -0.32523265       0.00000000 </v>
   <v>       0.50000000       0.00000000       0.00000000 </v>
   <v>       0.33748436       0.32523265       0.00000000 </v>
   <v>       0.00000000       0.50000000       0.00000000 </v>
   <v>       0.00000000       0.00000000       0.00000000 </v>
  </generation>
  <varray name="kpointlist" >
   <v>       0.00000000       0.00000000       0.00000000 </v>
   <v>       0.02631579      -0.02631579       0.00000000 </v>
   <v>       0.05263158      -0.05263158       0.00000000 </v>
   <v>       0.07894737      -0.07894737       0.00000000 </v>
   <v>       0.10526316      -0.10526316       0.00000000 </v>
   <v>       0.13157895      -0.13157895       0.00000000 </v>
   <v>       0.15789474      -0.15789474       0.00000000 </v>
   <v>       0.18421053      -0.18421053       0.00000000 </v>
   <v>       0.21052632      -0.21052632       0.00000000 </v>
   <v>       0.23684211      -0.23684211       0.00000000 </v>
   <v>       0.26315789      -0.26315789       0.00000000 </v>
   <v>       0.28947368      -0.28947368       0.00000000 </v>
   <v>       0.31578947      -0.31578947       0.00000000 </v>
   <v>       0.34210526      -0.34210526       0.00000000 </v>
   <v>       0.36842105      -0.36842105       0.00000000 </v>
   <v>       0.39473684      -0.39473684       0.00000000 </v>
   <v>       0.42105263      -0.42105263       0.00000000 </v>
   <v>       0.44736842      -0.44736842       0.00000000 </v>
   <v>       0.47368421      -0.47368421       0.00000000 </v>
   <v>       0.50000000      -0.50000000       0.00000000 </v>
   <v>       0.50000000      -0.50000000       0.00000000 </v>
   <v>       0.50855345      -0.49080172       0.00000000 </v>
   <v>       0.51710691      -0.48160344       0.00000000 </v>
   <v>       0.52566036      -0.47240516       0.00000000 </v>
   <v>       0.53421382      -0.46320687       0.00000000 </v>
   <v>       0.54276727      -0.45400859       0.00000000 </v>
   <v>       0.55132073      -0.44481031       0.00000000 </v>
   <v>       0.55987418      -0.43561203       0.00000000 </v>
   <v>       0.56842764      -0.42641375       0.00000000 </v>
   <v>       0.57698109      -0.41721547       0.00000000 </v>
   <v>       0.58553455      -0.40801718       0.00000000 </v>
   <v>       0.59408800      -0.39881890       0.00000000 </v>
   <v>       0.60264146      -0.38962062       0.00000000 </v>
   <v>       0.61119491      -0.38042234       0.00000000 </v>
   <v>       0.61974837      -0.37122406       0.00000000 </v>
   <v>       0.62830182      -0.36202578       0.00000000 </v>
   <v>       0.63685528      -0.35282750       0.00000000 </v>
   <v>       0.64540873      -0.34362921       0.00000000 </v>
   <v>       0.65396219      -0.33443093       0.00000000 </v>
   <v>       0.66251564      -0.32523265       0.00000000 </v>
   <v>       0.66251564      -0.32523265       0.00000000 </v>
   <v>       0.65396219      -0.30811514       0.00000000 </v>
   <v>       0.64540873      -0.29099763       0.00000000 </v>
   <v>       0.63685528      -0.27388013       0.00000000 </v>
   <v>       0.62830182      -0.25676262       0.00000000 </v>
   <v>       0.61974837      -0.23964511       0.00000000 </v>
   <v>       0.61119491      -0.22252760       0.00000000 </v>
   <v>       0.60264146      -0.20541010       0.00000000 </v>
   <v>       0.59408800      -0.18829259       0.00000000 </v>
   <v>       0.58553455      -0.17117508       0.00000000 </v>
   <v>       0.57698109      -0.15405757       0.00000000 </v>
   <v>       0.56842764      -0.13694006       0.00000000 </v>
   <v>       0.55987418      -0.11982256       0.00000000 </v>
   <v>       0.55132073      -0.10270505       0.00000000 </v>
   <v>       0.54276727      -0.08558754       0.00000000 </v>
   <v>       0.53421382      -0.06847003       0.00000000 </v>
   <v>       0.52566036      -0.05135252       0.00000000 </v>
   <v>       0.51710691      -0.03423502       0.00000000 </v>
   <v>       0.50855345      -0.01711751       0.00000000 </v>
   <v>       0.50000000       0.00000000       0.00000000 </v>
   <v>       0.50000000       0.00000000       0.00000000 </v>
   <v>       0.49144655       0.01711751       0.00000000 </v>
   <v>       0.48289309       0.03423502       0.00000000 </v>
   <v>       0.47433964       0.05135252       0.00000000 </v>
   <v>       0.46578618       0.06847003       0.00000000 </v>
   <v>       0.45723273       0.08558754       0.00000000 </v>
   <v>       0.44867927       0.10270505       0.00000000 </v>
   <v>       0.44012582       0.11982256       0.00000000 </v>
   <v>       0.43157236       0.13694006       0.00000000 </v>
   <v>       0.42301891       0.15405757       0.00000000 </v>
   <v>       0.41446545       0.17117508       0.00000000 </v>
   <v>       0.40591200       0.18829259       0.00000000 </v>
   <v>       0.39735854       0.20541010       0.00000000 </v>
   <v>       0.38880509       0.22252760       0.00000000 </v>
   <v>       0.38025163       0.23964511       0.00000000 </v>
   <v>       0.37169818       0.25676262       0.00000000 </v>
   <v>       0.36314472       0.27388013       0.00000000 </v>
   <v>       0.35459127       0.29099763       0.00000000 </v>
   <v>       0.34603781       0.30811514       0.00000000 </v>
   <v>       0.33748436       0.32523265       0.00000000 </v>
   <v>       0.33748436       0.32523265       0.00000000 </v>
   <v>       0.31972202       0.33443093       0.00000000 </v>
   <v>       0.30195969       0.34362921       0.00000000 </v>
   <v>       0.28419735       0.35282750       0.00000000 </v>
   <v>       0.26643502       0.36202578       0.00000000 </v>
   <v>       0.24867268       0.37122406       0.00000000 </v>
   <v>       0.23091035       0.38042234       0.00000000 </v>
   <v>       0.21314801       0.38962062       0.00000000 </v>
   <v>       0.19538568       0.39881890       0.00000000 </v>
   <v>       0.17762335       0.40801718       0.00000000 </v>
   <v>       0.15986101       0.41721547       0.00000000 </v>
   <v>       0.14209868       0.42641375       0.00000000 </v>
   <v>       0.12433634       0.43561203       0.00000000 </v>
   <v>       0.10657401       0.44481031       0.00000000 </v>
   <v>       0.08881167       0.45400859       0.00000000 </v>
   <v>       0.07104934       0.46320687       0.00000000 </v>
   <v>       0.05328700       0.47240516       0.00000000 </v>
   <v>       0.03552467       0.48160344       0.00000000 </v>
   <v>       0.01776233       0.49080172       0.00000000 </v>
   <v>       0.00000000       0.50000000       0.00000000 </v>
   <v>       0.00000000       0.50000000       0.00000000 </v>
   <v>       0.00000000       0.47368421       0.00000000 </v>
   <v>       0.00000000       0.44736842       0.00000000 </v>
   <v>       0.00000000       0.42105263       0.00000000 </v>
   <v>       0.00000000       0.39473684       0.00000000 </v>
   <v>       0.00000000       0.36842105       0.00000000 </v>
   <v>       0.00000000       0.34210526       0.00000000 </v>
   <v>       0.00000000       0.31578947       0.00000000 </v>
   <v>       0.00000000       0.28947368       0.00000000 </v>
   <v>       0.00000000       0.26315789       0.00000000 </v>
   <v>       0.00000000       0.23684211       0.00000000 </v>
   <v>       0.00000000       0.21052632       0.00000000 </v>
   <v>       0.00000000       0.18421053       0.00000000 </v>
   <v>       0.00000000       0.15789474       0.00000000 </v>
   <v>       0.00000000       0.13157895       0.00000000 </v>
   <v>       0.00000000       0.10526316       0.00000000 </v>
   <v>       0.00000000       0.07894737       0.00000000 </v>
   <v>       0.00000000       0.05263158       0.00000000 </v>
   <v>       0.00000000       0.02631579       0.00000000 </v>
   <v>       0.00000000       0.00000000       0.00000000 </v>
  </varray>
  <varray name="weights" >
   <v>       0.00833333 </v>
   <v>       0.00833333 </v>
   <v>       0.00833333 </v>
   <v>       0.00833333 </v>
   <v>       0.00833333 </v>
   <v>       0.00833333 </v>
   <v>       0.00833333 </v>
   <v>       0.00833333 </v>
   <v>       0.00833333 </v>
   <v>       0.00833333 </v>
   <v>       0.00833333 </v>
   <v>       0.00833333 </v>
   <v>       0.00833333 </v>
   <v>       0.00833333 </v>
   <v>       0.00833333 </v>
   <v>       0.00833333 </v>
   <v>       0.00833333 </v>
   <v>       0.00833333 </v>
   <v>       0.00833333 </v>
   <v>       0.00833333 </v>
   <v>       0.00833333 </v>
   <v>       0.00833333 </v>
   <v>       0.00833333 </v>
   <v>       0.00833333 </v>
   <v>       0.00833333 </v>
   <v>       0.00833333 </v>
   <v>       0.00833333 </v>
   <v>       0.00833333 </v>
   <v>       0.00833333 </v>
   <v>       0.00833333 </v>
   <v>       0.00833333 </v>
   <v>       0.00833333 </v>
   <v>       0.00833333 </v>
   <v>       0.00833333 </v>
   <v>       0.00833333 </v>
   <v>       0.00833333 </v>
   <v>       0.00833333 </v>
   <v>       0.00833333 </v>
   <v>       0.00833333 </v>
   <v>       0.00833333 </v>
   <v>       0.00833333 </v>
   <v>       0.00833333 </v>
   <v>       0.00833333 </v>
   <v>       0.00833333 </v>
   <v>       0.00833333 </v>
   <v>       0.00833333 </v>
   <v>       0.00833333 </v>
   <v>       0.00833333 </v>
   <v>       0.00833333 </v>
   <v>       0.00833333 </v>
   <v>       0.00833333 </v>
   <v>       0.00833333 </v>
   <v>       0.00833333 </v>
   <v>       0.00833333 </v>
   <v>       0.00833333 </v>
   <v>       0.00833333 </v>
   <v>       0.00833333 </v>
   <v>       0.00833333 </v>
   <v>       0.00833333 </v>
   <v>       0.00833333 </v>
   <v>       0.00833333 </v>
   <v>       0.00833333 </v>
   <v>       0.00833333 </v>
   <v>       0.00833333 </v>
   <v>       0.00833333 </v>
   <v>       0.00833333 </v>
   <v>       0.00833333 </v>
   <v>       0.00833333 </v>
   <v>       0.00833333 </v>
   <v>       0.00833333 </v>
   <v>       0.00833333 </v>
   <v>       0.00833333 </v>
   <v>       0.00833333 </v>
   <v>       0.00833333 </v>
   <v>       0.00833333 </v>
   <v>       0.00833333 </v>
   <v>       0.00833333 </v>
   <v>       0.00833333 </v>
   <v>       0.00833333 </v>
   <v>       0.00833333 </v>
   <v>       0.00833333 </v>
   <v>       0.00833333 </v>
   <v>       0.00833333 </v>
   <v>       0.00833333 </v>
   <v>       0.00833333 </v>
   <v>       0.00833333 </v>
   <v>       0.00833333 </v>
   <v>       0.00833333 </v>
   <v>       0.00833333 </v>
   <v>       0.00833333 </v>
   <v>       0.00833333 </v>
   <v>       0.00833333 </v>
   <v>       0.00833333 </v>
   <v>       0.00833333 </v>
   <v>       0.00833333 </v>
   <v>       0.00833333 </v>
   <v>       0.00833333 </v>
   <v>       0.00833333 </v>
   <v>       0.00833333 </v>
   <v>       0.00833333 </v>
   <v>       0.00833333 </v>
   <v>       0.00833333 </v>
   <v>       0.00833333 </v>
   <v>       0.00833333 </v>
   <v>       0.00833333 </v>
   <v>       0.00833333 </v>
   <v>       0.00833333 </v>
   <v>       0.00833333 </v>
   <v>       0.00833333 </v>
   <v>       0.00833333 </v>
   <v>       0.00833333 </v>
   <v>       0.00833333 </v>
   <v>       0.00833333 </v>
   <v>       0.00833333 </v>
   <v>       0.00833333 </v>
   <v>       0.00833333 </v>
   <v>       0.00833333 </v>
   <v>       0.00833333 </v>
   <v>       0.00833333 </v>
   <v>       0.00833333 </v>
  </varray>
 </kpoints>
 <parameters>
  <separator name="general" >
   <i type="string" name="SYSTEM">Simulation for cell shape cell volume r</i>
   <i type="logical" name="LCOMPAT"> F  </i>
  </separator>
  <separator name="electronic" >
   <i type="string" name="PREC">high</i>
   <i name="ENMAX">    500.00000000</i>
   <i name="ENAUG">    644.87300000</i>
   <i name="EDIFF">      0.00001000</i>
   <i type="int" name="IALGO">    38</i>
   <i type="int" name="IWAVPR">    10</i>
   <i type="int" name="NBANDS">   128</i>
   <i name="NELECT">    186.00000000</i>
   <i type="int" name="TURBO">     0</i>
   <i type="int" name="IRESTART">     0</i>
   <i type="int" name="NREBOOT">     0</i>
   <i type="int" name="NMIN">     0</i>
   <i name="EREF">      0.00000000</i>
   <separator name="electronic smearing" >
    <i type="int" name="ISMEAR">     0</i>
    <i name="SIGMA">      0.01000000</i>
    <i name="KSPACING">      0.50000000</i>
    <i type="logical" name="KGAMMA"> T  </i>
   </separator>
   <separator name="electronic projectors" >
    <i type="logical" name="LREAL"> T  </i>
    <v name="ROPT">     -0.00040000     -0.00040000     -0.00040000     -0.00040000</v>
    <i type="int" name="LMAXPAW">  -100</i>
    <i type="int" name="LMAXMIX">     2</i>
    <i type="logical" name="NLSPLINE"> F  </i>
   </separator>
   <separator name="electronic startup" >
    <i type="int" name="ISTART">     1</i>
    <i type="int" name="ICHARG">    11</i>
    <i type="int" name="INIWAV">     1</i>
   </separator>
   <separator name="electronic spin" >
    <i type="int" name="ISPIN">     1</i>
    <i type="logical" name="LNONCOLLINEAR"> F  </i>
    <v name="MAGMOM">      1.00000000      1.00000000      1.00000000      1.00000000      1.00000000      1.00000000      1.00000000      1.00000000      1.00000000      1.00000000      1.00000000      1.00000000      1.00000000      1.00000000      1.00000000      1.00000000      1.00000000      1.00000000      1.00000000      1.00000000
      1.00000000      1.00000000      1.00000000      1.00000000      1.00000000      1.00000000      1.00000000      1.00000000      1.00000000      1.00000000      1.00000000      1.00000000      1.00000000      1.00000000      1.00000000      1.00000000      1.00000000      1.00000000      1.00000000      1.00000000
      1.00000000      1.00000000      1.00000000      1.00000000      1.00000000      1.00000000      1.00000000      1.00000000      1.00000000      1.00000000      1.00000000</v>
    <i name="NUPDOWN">     -1.00000000</i>
    <i type="logical" name="LSORBIT"> F  </i>
    <v name="SAXIS">      0.00000000      0.00000000      1.00000000</v>
    <i type="logical" name="LSPIRAL"> F  </i>
    <v name="QSPIRAL">      0.00000000      0.00000000      0.00000000</v>
    <i type="logical" name="LZEROZ"> F  </i>
   </separator>
   <separator name="electronic exchange-correlation" >
    <i type="logical" name="LASPH"> F  </i>
    <i type="logical" name="LMETAGGA"> F  </i>
   </separator>
   <separator name="electronic convergence" >
    <i type="int" name="NELM">   200</i>
    <i type="int" name="NELMDL">     0</i>
    <i type="int" name="NELMIN">     2</i>
    <i name="ENINI">    500.00000000</i>
    <separator name="electronic convergence detail" >
     <i type="logical" name="LDIAG"> T  </i>
     <i type="logical" name="LSUBROT"> F  </i>
     <i name="WEIMIN">      0.00000000</i>
     <i name="EBREAK">      0.00000002</i>
     <i name="DEPER">      0.30000000</i>
     <i type="int" name="NRMM">     4</i>
     <i name="TIME">      0.40000000</i>
    </separator>
   </separator>
   <separator name="electronic mixer" >
    <i name="AMIX">      0.40000000</i>
    <i name="BMIX">      1.00000000</i>
    <i name="AMIN">      0.10000000</i>
    <i name="AMIX_MAG">      1.60000000</i>
    <i name="BMIX_MAG">      1.00000000</i>
    <separator name="electronic mixer details" >
     <i type="int" name="IMIX">     4</i>
     <i type="logical" name="MIXFIRST"> F  </i>
     <i type="int" name="MAXMIX">   -45</i>
     <i name="WC">    100.00000000</i>
     <i type="int" name="INIMIX">     1</i>
     <i type="int" name="MIXPRE">     1</i>
     <i type="int" name="MREMOVE">     5</i>
    </separator>
   </separator>
   <separator name="electronic dipolcorrection" >
    <i type="logical" name="LDIPOL"> F  </i>
    <i type="logical" name="LMONO"> F  </i>
    <i type="int" name="IDIPOL">     0</i>
    <i name="EPSILON">      1.00000000</i>
    <v name="DIPOL">   -100.00000000   -100.00000000   -100.00000000</v>
    <i name="EFIELD">      0.00000000</i>
   </separator>
  </separator>
  <separator name="grids" >
   <i type="int" name="NGX">   108</i>
   <i type="int" name="NGY">   112</i>
   <i type="int" name="NGZ">   150</i>
   <i type="int" name="NGXF">   162</i>
   <i type="int" name="NGYF">   168</i>
   <i type="int" name="NGZF">   224</i>
   <i type="logical" name="ADDGRID"> F  </i>
  </separator>
  <separator name="ionic" >
   <i type="int" name="NSW">     0</i>
   <i type="int" name="IBRION">    -1</i>
   <i type="int" name="MDALGO">     0</i>
   <i type="int" name="ISIF">     2</i>
   <i name="PSTRESS">      0.00000000</i>
   <i name="EDIFFG">     -0.01000000</i>
   <i type="int" name="NFREE">     0</i>
   <i name="POTIM">      0.30000000</i>
   <i name="SMASS">     -3.00000000</i>
   <i name="SCALEE">      1.00000000</i>
  </separator>
  <separator name="ionic md" >
   <i name="TEBEG">      0.00010000</i>
   <i name="TEEND">      0.00010000</i>
   <i type="int" name="NBLOCK">     1</i>
   <i type="int" name="KBLOCK">     1</i>
   <i type="int" name="NPACO">   256</i>
   <i name="APACO">     16.00000000</i>
  </separator>
  <separator name="symmetry" >
   <i type="int" name="ISYM">     2</i>
   <i name="SYMPREC">      0.00001000</i>
  </separator>
  <separator name="dos" >
   <i type="int" name="LORBIT">     0</i>
   <v name="RWIGS">     -1.00000000     -1.00000000     -1.00000000     -1.00000000</v>
   <i type="int" name="NEDOS">   301</i>
   <i name="EMIN">     10.00000000</i>
   <i name="EMAX">    -10.00000000</i>
   <i name="EFERMI">      0.00000000</i>
  </separator>
  <separator name="writing" >
   <i type="int" name="NWRITE">     0</i>
   <i type="logical" name="LWAVE"> F  </i>
   <i type="logical" name="LDOWNSAMPLE"> F  </i>
   <i type="logical" name="LCHARG"> F  </i>
   <i type="logical" name="LPARD"> F  </i>
   <i type="logical" name="LVTOT"> F  </i>
   <i type="logical" name="LVHAR"> F  </i>
   <i type="logical" name="LELF"> F  </i>
   <i type="logical" name="LOPTICS"> F  </i>
   <v name="STM">      0.00000000      0.00000000      0.00000000      0.00000000      0.00000000      0.00000000      0.00000000</v>
  </separator>
  <separator name="performance" >
   <i type="int" name="NPAR">    16</i>
   <i type="int" name="NSIM">     4</i>
   <i type="int" name="NBLK">    -1</i>
   <i type="logical" name="LPLANE"> T  </i>
   <i type="logical" name="LSCALAPACK"> T  </i>
   <i type="logical" name="LSCAAWARE"> F  </i>
   <i type="logical" name="LSCALU"> F  </i>
   <i type="logical" name="LASYNC"> F  </i>
   <i type="logical" name="LORBITALREAL"> F  </i>
  </separator>
  <separator name="miscellaneous" >
   <i type="int" name="IDIOT">     3</i>
   <i type="int" name="ISPECIAL">     0</i>
   <i type="logical" name="LMUSIC"> F  </i>
   <v name="POMASS">     12.01100000      1.00000000     14.00100000     16.00000000</v>
   <v name="DARWINR">      0.00000000      0.00000000      0.00000000      0.00000000</v>
   <v name="DARWINV">      1.00000000      1.00000000      1.00000000      1.00000000</v>
   <i type="logical" name="LCORR"> T  </i>
  </separator>
  <i type="logical" name="GGA_COMPAT"> T  </i>
  <i type="logical" name="LBERRY"> F  </i>
  <i type="int" name="ICORELEVEL">     0</i>
  <i type="logical" name="LDAU"> F  </i>
  <i type="int" name="I_CONSTRAINED_M">     0</i>
  <separator name="electronic exchange-correlation" >
   <i type="string" name="GGA">PE</i>
   <i type="int" name="VOSKOWN">     0</i>
   <i type="logical" name="LHFCALC"> F  </i>
   <i type="string" name="PRECFOCK"></i>
   <i type="logical" name="LSYMGRAD"> F  </i>
   <i type="logical" name="LHFONE"> F  </i>
   <i type="logical" name="LRHFCALC"> F  </i>
   <i type="logical" name="LTHOMAS"> F  </i>
   <i type="logical" name="LMODELHF"> F  </i>
   <i name="ENCUT4O">     -1.00000000</i>
   <i type="int" name="EXXOEP">     0</i>
   <i type="int" name="FOURORBIT">     0</i>
   <i name="AEXX">      0.00000000</i>
   <i name="HFALPHA">      0.00000000</i>
   <i name="MCALPHA">      0.00000000</i>
   <i name="ALDAX">      1.00000000</i>
   <i name="AGGAX">      1.00000000</i>
   <i name="ALDAC">      1.00000000</i>
   <i name="AGGAC">      1.00000000</i>
   <i type="int" name="NKREDX">     1</i>
   <i type="int" name="NKREDY">     1</i>
   <i type="int" name="NKREDZ">     1</i>
   <i type="logical" name="SHIFTRED"> F  </i>
   <i type="logical" name="ODDONLY"> F  </i>
   <i type="logical" name="EVENONLY"> F  </i>
   <i type="int" name="LMAXFOCK">     0</i>
   <i type="int" name="NMAXFOCKAE">     0</i>
   <i type="logical" name="LFOCKAEDFT"> F  </i>
   <i name="HFSCREEN">      0.00000000</i>
   <i name="HFSCREENC">      0.00000000</i>
   <i type="int" name="NBANDSGWLOW">     0</i>
  </separator>
  <separator name="vdW DFT" >
   <i type="logical" name="LUSE_VDW"> F  </i>
   <i name="Zab_VDW">     -0.84910000</i>
   <i name="PARAM1">      0.12340000</i>
   <i name="PARAM2">      1.00000000</i>
   <i name="PARAM3">      0.00000000</i>
  </separator>
  <separator name="model GW" >
   <i type="int" name="MODEL_GW">     0</i>
   <i name="MODEL_EPS0">     44.06629836</i>
   <i name="MODEL_ALPHA">      1.00000000</i>
  </separator>
  <separator name="linear response parameters" >
   <i type="logical" name="LEPSILON"> F  </i>
   <i type="logical" name="LRPA"> F  </i>
   <i type="logical" name="LNABLA"> F  </i>
   <i type="logical" name="LVEL"> F  </i>
   <i type="int" name="KINTER">     0</i>
   <i name="CSHIFT">      0.10000000</i>
   <i name="OMEGAMAX">     -1.00000000</i>
   <i name="DEG_THRESHOLD">      0.00200000</i>
   <i name="RTIME">     -0.10000000</i>
   <i name="WPLASMAI">      0.00000000</i>
   <v name="DFIELD">      0.00000000      0.00000000      0.00000000</v>
   <v name="WPLASMA">      0.00000000      0.00000000      0.00000000      0.00000000      0.00000000      0.00000000      0.00000000      0.00000000      0.00000000</v>
  </separator>
  <separator name="orbital magnetization" >
   <i type="logical" name="NUCIND"> F  </i>
   <v name="MAGPOS">      0.00000000      0.00000000      0.00000000</v>
   <i type="logical" name="LNICSALL"> T  </i>
   <i type="logical" name="ORBITALMAG"> F  </i>
   <i type="logical" name="LMAGBLOCH"> F  </i>
   <i type="logical" name="LCHIMAG"> F  </i>
   <i type="logical" name="LGAUGE"> T  </i>
   <i type="int" name="MAGATOM">     0</i>
   <v name="MAGDIPOL">      0.00000000      0.00000000      0.00000000</v>
   <v name="AVECCONST">      0.00000000      0.00000000      0.00000000</v>
  </separator>
  <separator name="response functions" >
   <i type="logical" name="LADDER"> F  </i>
   <i type="logical" name="LRPAFORCE"> F  </i>
   <i type="logical" name="LFXC"> F  </i>
   <i type="logical" name="LHARTREE"> T  </i>
   <i type="int" name="IBSE">     0</i>
   <v type="int" name="KPOINT">    -1     0     0     0</v>
   <i type="logical" name="LTCTE"> F  </i>
   <i type="logical" name="LTETE"> F  </i>
   <i type="logical" name="LTRIPLET"> F  </i>
   <i type="logical" name="LFXCEPS"> F  </i>
   <i type="logical" name="LFXHEG"> F  </i>
   <i type="int" name="NATURALO">     2</i>
   <i type="logical" name="L2ORDER"> F  </i>
   <i type="logical" name="LMP2LT"> F  </i>
   <i type="logical" name="LUSEW"> F  </i>
   <i name="ENCUTGW">     -2.00000000</i>
   <i name="ENCUTGWSOFT">     -2.00000000</i>
   <i name="ENCUTLF">     -1.00000000</i>
   <i type="int" name="LMAXMP2">    -1</i>
   <i name="SCISSOR">      0.00000000</i>
   <i type="int" name="NOMEGA">     0</i>
   <i type="int" name="NOMEGAR">     0</i>
   <i type="int" name="NBANDSGW">    -1</i>
   <i type="int" name="NBANDSO">    -1</i>
   <i type="int" name="NBANDSV">    -1</i>
   <i type="int" name="NELM">   200</i>
   <i type="int" name="NELMHF">     1</i>
   <i type="int" name="DIM">     3</i>
   <i type="int" name="ANTIRES">     0</i>
   <i name="OMEGAMAX">    -30.00000000</i>
   <i name="OMEGAMIN">    -30.00000000</i>
   <i name="OMEGATL">   -200.00000000</i>
   <i type="int" name="OMEGAGRID">   140</i>
   <i name="CSHIFT">     -0.10000000</i>
   <i type="logical" name="SELFENERGY"> F  </i>
   <i type="logical" name="LSPECTRAL"> F  </i>
   <i type="logical" name="LSPECTRALGW"> F  </i>
   <i type="logical" name="LSINGLES"> F  </i>
   <i type="logical" name="LFERMIGW"> F  </i>
   <i type="logical" name="ODDONLYGW"> F  </i>
   <i type="logical" name="EVENONLYGW"> F  </i>
   <i type="int" name="NKREDLFX">     1</i>
   <i type="int" name="NKREDLFY">     1</i>
   <i type="int" name="NKREDLFZ">     1</i>
   <i type="int" name="MAXMEM">  2800</i>
   <i type="int" name="TELESCOPE">     0</i>
   <i type="int" name="TAUPAR">     1</i>
   <i type="int" name="OMEGAPAR">    -1</i>
   <i name="LAMBDA">      1.00000000</i>
  </separator>
  <separator name="External order field" >
   <i name="OFIELD_KAPPA">      0.00000000</i>
   <v name="OFIELD_K">      0.00000000      0.00000000      0.00000000</v>
   <i name="OFIELD_Q6_NEAR">      0.00000000</i>
   <i name="OFIELD_Q6_FAR">      0.00000000</i>
   <i name="OFIELD_A">      0.00000000</i>
  </separator>
  <separator name="solvation model" >
   <i type="logical" name="LSOL"> F  </i>
  </separator>
 </parameters>
 <atominfo>
  <atoms>      51 </atoms>
  <types>       4 </types>
  <array name="atoms" >
   <dimension dim="1">ion</dimension>
   <field type="string">element</field>
   <field type="int">atomtype</field>
   <set>
    <rc><c>C </c><c>   1</c></rc>
    <rc><c>C </c><c>   1</c></rc>
    <rc><c>C </c><c>   1</c></rc>
    <rc><c>C </c><c>   1</c></rc>
    <rc><c>C </c><c>   1</c></rc>
    <rc><c>C </c><c>   1</c></rc>
    <rc><c>C </c><c>   1</c></rc>
    <rc><c>C </c><c>   1</c></rc>
    <rc><c>C </c><c>   1</c></rc>
    <rc><c>C </c><c>   1</c></rc>
    <rc><c>C </c><c>   1</c></rc>
    <rc><c>C </c><c>   1</c></rc>
    <rc><c>C </c><c>   1</c></rc>
    <rc><c>C </c><c>   1</c></rc>
    <rc><c>C </c><c>   1</c></rc>
    <rc><c>C </c><c>   1</c></rc>
    <rc><c>C </c><c>   1</c></rc>
    <rc><c>C </c><c>   1</c></rc>
    <rc><c>C </c><c>   1</c></rc>
    <rc><c>C </c><c>   1</c></rc>
    <rc><c>C </c><c>   1</c></rc>
    <rc><c>C </c><c>   1</c></rc>
    <rc><c>C </c><c>   1</c></rc>
    <rc><c>C </c><c>   1</c></rc>
    <rc><c>C </c><c>   1</c></rc>
    <rc><c>C </c><c>   1</c></rc>
    <rc><c>C </c><c>   1</c></rc>
    <rc><c>H </c><c>   2</c></rc>
    <rc><c>H </c><c>   2</c></rc>
    <rc><c>H </c><c>   2</c></rc>
    <rc><c>H </c><c>   2</c></rc>
    <rc><c>H </c><c>   2</c></rc>
    <rc><c>H </c><c>   2</c></rc>
    <rc><c>H </c><c>   2</c></rc>
    <rc><c>H </c><c>   2</c></rc>
    <rc><c>H </c><c>   2</c></rc>
    <rc><c>H </c><c>   2</c></rc>
    <rc><c>H </c><c>   2</c></rc>
    <rc><c>H </c><c>   2</c></rc>
    <rc><c>N </c><c>   3</c></rc>
    <rc><c>N </c><c>   3</c></rc>
    <rc><c>N </c><c>   3</c></rc>
    <rc><c>N </c><c>   3</c></rc>
    <rc><c>N </c><c>   3</c></rc>
    <rc><c>N </c><c>   3</c></rc>
    <rc><c>O </c><c>   4</c></rc>
    <rc><c>O </c><c>   4</c></rc>
    <rc><c>O </c><c>   4</c></rc>
    <rc><c>O </c><c>   4</c></rc>
    <rc><c>O </c><c>   4</c></rc>
    <rc><c>O </c><c>   4</c></rc>
   </set>
  </array>
  <array name="atomtypes" >
   <dimension dim="1">type</dimension>
   <field type="int">atomspertype</field>
   <field type="string">element</field>
   <field>mass</field>
   <field>valence</field>
   <field type="string">pseudopotential</field>
   <set>
    <rc><c>  27</c><c>C </c><c>     12.01100000</c><c>      4.00000000</c><c>  PAW_PBE C 08Apr2002                   </c></rc>
    <rc><c>  12</c><c>H </c><c>      1.00000000</c><c>      1.00000000</c><c>  PAW_PBE H 15Jun2001                   </c></rc>
    <rc><c>   6</c><c>N </c><c>     14.00100000</c><c>      5.00000000</c><c>  PAW_PBE N 08Apr2002                   </c></rc>
    <rc><c>   6</c><c>O </c><c>     16.00000000</c><c>      6.00000000</c><c>  PAW_PBE O 08Apr2002                   </c></rc>
   </set>
  </array>
 </atominfo>
 <structure name="initialpos" >
  <crystal>
   <varray name="basis" >
    <v>      14.61708344      -0.14655336       0.00000000 </v>
    <v>      -7.44105557      12.88713173       0.00000000 </v>
    <v>       0.00000000       0.00000000      20.00000000 </v>
   </varray>
   <i name="volume">   3745.63536032 </i>
   <varray name="rec_basis" >
    <v>       0.06881146       0.03973187       0.00000000 </v>
    <v>       0.00078253       0.07804862       0.00000000 </v>
    <v>       0.00000000       0.00000000       0.05000000 </v>
   </varray>
  </crystal>
  <varray name="positions" >
   <v>       0.48996043       0.44235666       0.44186864 </v>
   <v>       0.63104284       0.40586542       0.48645472 </v>
   <v>       0.57083266       0.29639848       0.48918103 </v>
   <v>       0.62110413       0.23738411       0.49044581 </v>
   <v>       0.73274071       0.29011648       0.48969513 </v>
   <v>       0.79370034       0.39916615       0.48686433 </v>
   <v>       0.74204951       0.45695712       0.48618287 </v>
   <v>       0.41376438       0.63131528       0.48987229 </v>
   <v>       0.46800794       0.74048634       0.49569581 </v>
   <v>       0.41175323       0.79369880       0.49650721 </v>
   <v>       0.30044308       0.73596906       0.49399288 </v>
   <v>       0.24525990       0.62687828       0.48965460 </v>
   <v>       0.30264400       0.57487253       0.48612827 </v>
   <v>       0.91125806       0.45626978       0.48573354 </v>
   <v>       0.12790544       0.56700052       0.48794678 </v>
   <v>       0.97369891       0.41802066       0.45752778 </v>
   <v>       0.92838049       0.31432908       0.42213309 </v>
   <v>       0.56253812       0.12166019       0.49342134 </v>
   <v>       0.46589922       0.90885385       0.49685386 </v>
   <v>       0.45656407       0.05505583       0.47149697 </v>
   <v>       0.38416527       0.09244274       0.44636430 </v>
   <v>       0.57799820       0.46807491       0.48384727 </v>
   <v>       0.47319489       0.57553842       0.48602518 </v>
   <v>       0.45286107       0.35909610       0.38852022 </v>
   <v>       0.06593087       0.60624967       0.51474600 </v>
   <v>       0.57034107       0.97468822       0.51985779 </v>
   <v>       0.56648430       0.60673469       0.52347888 </v>
   <v>       0.77009778       0.24293718       0.49361857 </v>
   <v>       0.78889830       0.54194231       0.48551061 </v>
   <v>       0.48478638       0.25872726       0.49374606 </v>
   <v>       0.25869261       0.77923738       0.49328711 </v>
   <v>       0.26039742       0.49025397       0.48055484 </v>
   <v>       0.55469135       0.78421130       0.49556284 </v>
   <v>       0.85350006       0.24470271       0.34357313 </v>
   <v>       0.36621424       0.16299660       0.37220232 </v>
   <v>       0.59786827       0.42747668       0.35682966 </v>
   <v>       0.10264106       0.68298606       0.53847654 </v>
   <v>       0.61720586       0.94335445       0.54126476 </v>
   <v>       0.59988494       0.67574698       0.55559173 </v>
   <v>       0.07975515       0.47182647       0.45972472 </v>
   <v>       0.41009658       0.95138286       0.47356055 </v>
   <v>       0.43639481       0.49305153       0.44480044 </v>
   <v>       0.96039777       0.55195634       0.51389283 </v>
   <v>       0.61708822       0.07814487       0.51789372 </v>
   <v>       0.61652151       0.55301883       0.52340124 </v>
   <v>       0.36167695       0.28681891       0.38312512 </v>
   <v>       0.93525125       0.24106745       0.44270436 </v>
   <v>       0.88036961       0.31380143       0.36373911 </v>
   <v>       0.31512922       0.09084505       0.48154290 </v>
   <v>       0.40588793       0.12668507       0.38291378 </v>
   <v>       0.52811906       0.36882095       0.34447524 </v>
  </varray>
 </structure>
 <calculation>
  <scstep>
   <time name="dav">   63.74   64.21</time>
   <time name="total">   63.83   64.31</time>
   <energy>
    <i name="alphaZ">     42.30715062 </i>
    <i name="ewald">  21185.50725118 </i>
    <i name="hartreedc"> -28116.08517642 </i>
    <i name="XCdc">    694.99791472 </i>
    <i name="pawpsdc">  17431.96942381 </i>
    <i name="pawaedc"> -17470.78478080 </i>
    <i name="eentropy">     -0.00000000 </i>
    <i name="bandstr">  -2444.27194956 </i>
    <i name="atom">   8304.19224802 </i>
    <i name="e_fr_energy">   -372.16791844 </i>
    <i name="e_wo_entrp">   -372.16791844 </i>
    <i name="e_0_energy">   -372.16791844 </i>
   </energy>
  </scstep>
  <scstep>
   <time name="dav">   71.91   72.43</time>
   <time name="total">   71.93   72.44</time>
   <energy>
    <i name="e_fr_energy">   -375.61299849 </i>
    <i name="e_wo_entrp">   -375.61299849 </i>
    <i name="e_0_energy">   -375.61299849 </i>
   </energy>
  </scstep>
  <scstep>
   <time name="dav">   76.27   76.81</time>
   <time name="total">   76.28   76.82</time>
   <energy>
    <i name="e_fr_energy">   -375.67963873 </i>
    <i name="e_wo_entrp">   -375.67963873 </i>
    <i name="e_0_energy">   -375.67963873 </i>
   </energy>
  </scstep>
  <scstep>
   <time name="dav">   71.96   72.48</time>
   <time name="total">   71.97   72.49</time>
   <energy>
    <i name="e_fr_energy">   -375.68149651 </i>
    <i name="e_wo_entrp">   -375.68149651 </i>
    <i name="e_0_energy">   -375.68149651 </i>
   </energy>
  </scstep>
  <scstep>
   <time name="dav">   76.87   77.42</time>
   <time name="total">   76.88   77.43</time>
   <energy>
    <i name="e_fr_energy">   -375.68157890 </i>
    <i name="e_wo_entrp">   -375.68157890 </i>
    <i name="e_0_energy">   -375.68157890 </i>
   </energy>
  </scstep>
  <scstep>
   <time name="dav">   63.28   63.74</time>
   <time name="total">   63.29   63.75</time>
   <energy>
    <i name="alphaZ">     42.30715062 </i>
    <i name="ewald">  21185.50725118 </i>
    <i name="hartreedc"> -28116.08517642 </i>
    <i name="XCdc">    694.99791472 </i>
    <i name="pawpsdc">  17431.96942381 </i>
    <i name="pawaedc"> -17470.78478080 </i>
    <i name="eentropy">     -0.00000000 </i>
    <i name="bandstr">  -2447.78561284 </i>
    <i name="atom">   8304.19224802 </i>
    <i name="e_fr_energy">   -375.68158172 </i>
    <i name="e_wo_entrp">   -375.68158172 </i>
    <i name="e_0_energy">   -375.68158172 </i>
   </energy>
  </scstep>
  <structure>
   <crystal>
    <varray name="basis" >
     <v>      14.61708344      -0.14655336       0.00000000 </v>
     <v>      -7.44105557      12.88713173       0.00000000 </v>
     <v>       0.00000000       0.00000000      20.00000000 </v>
    </varray>
    <i name="volume">   3745.63536032 </i>
    <varray name="rec_basis" >
     <v>       0.06881146       0.03973187       0.00000000 </v>
     <v>       0.00078253       0.07804862       0.00000000 </v>
     <v>       0.00000000       0.00000000       0.05000000 </v>
    </varray>
   </crystal>
   <varray name="positions" >
    <v>       0.48996043       0.44235666       0.44186864 </v>
    <v>       0.63104284       0.40586542       0.48645472 </v>
    <v>       0.57083266       0.29639848       0.48918103 </v>
    <v>       0.62110413       0.23738411       0.49044581 </v>
    <v>       0.73274071       0.29011648       0.48969513 </v>
    <v>       0.79370034       0.39916615       0.48686433 </v>
    <v>       0.74204951       0.45695712       0.48618287 </v>
    <v>       0.41376438       0.63131528       0.48987229 </v>
    <v>       0.46800794       0.74048634       0.49569581 </v>
    <v>       0.41175323       0.79369880       0.49650721 </v>
    <v>       0.30044308       0.73596906       0.49399288 </v>
    <v>       0.24525990       0.62687828       0.48965460 </v>
    <v>       0.30264400       0.57487253       0.48612827 </v>
    <v>       0.91125806       0.45626978       0.48573354 </v>
    <v>       0.12790544       0.56700052       0.48794678 </v>
    <v>       0.97369891       0.41802066       0.45752778 </v>
    <v>       0.92838049       0.31432908       0.42213309 </v>
    <v>       0.56253812       0.12166019       0.49342134 </v>
    <v>       0.46589922       0.90885385       0.49685386 </v>
    <v>       0.45656407       0.05505583       0.47149697 </v>
    <v>       0.38416527       0.09244274       0.44636430 </v>
    <v>       0.57799820       0.46807491       0.48384727 </v>
    <v>       0.47319489       0.57553842       0.48602518 </v>
    <v>       0.45286107       0.35909610       0.38852022 </v>
    <v>       0.06593087       0.60624967       0.51474600 </v>
    <v>       0.57034107       0.97468822       0.51985779 </v>
    <v>       0.56648430       0.60673469       0.52347888 </v>
    <v>       0.77009778       0.24293718       0.49361857 </v>
    <v>       0.78889830       0.54194231       0.48551061 </v>
    <v>       0.48478638       0.25872726       0.49374606 </v>
    <v>       0.25869261       0.77923738       0.49328711 </v>
    <v>       0.26039742       0.49025397       0.48055484 </v>
    <v>       0.55469135       0.78421130       0.49556284 </v>
    <v>       0.85350006       0.24470271       0.34357313 </v>
    <v>       0.36621424       0.16299660       0.37220232 </v>
    <v>       0.59786827       0.42747668       0.35682966 </v>
    <v>       0.10264106       0.68298606       0.53847654 </v>
    <v>       0.61720586       0.94335445       0.54126476 </v>
    <v>       0.59988494       0.67574698       0.55559173 </v>
    <v>       0.07975515       0.47182647       0.45972472 </v>
    <v>       0.41009658       0.95138286       0.47356055 </v>
    <v>       0.43639481       0.49305153       0.44480044 </v>
    <v>       0.96039777       0.55195634       0.51389283 </v>
    <v>       0.61708822       0.07814487       0.51789372 </v>
    <v>       0.61652151       0.55301883       0.52340124 </v>
    <v>       0.36167695       0.28681891       0.38312512 </v>
    <v>       0.93525125       0.24106745       0.44270436 </v>
    <v>       0.88036961       0.31380143       0.36373911 </v>
    <v>       0.31512922       0.09084505       0.48154290 </v>
    <v>       0.40588793       0.12668507       0.38291378 </v>
    <v>       0.52811906       0.36882095       0.34447524 </v>
   </varray>
  </structure>
  <varray name="forces" >
   <v>      -0.00413925       0.00012460      -0.00020242 </v>
   <v>       0.00059584       0.00225227       0.00037828 </v>
   <v>       0.00361650       0.00143540       0.00610829 </v>
   <v>      -0.00307010      -0.00348342       0.00183250 </v>
   <v>      -0.00159369       0.00031049       0.00115263 </v>
   <v>      -0.00123633       0.00523774       0.00127185 </v>
   <v>      -0.00043402       0.00027893      -0.00348657 </v>
   <v>       0.00385125      -0.00288116      -0.00147110 </v>
   <v>      -0.00229796      -0.00501875      -0.00630743 </v>
   <v>       0.00514278       0.00121712       0.00071874 </v>
   <v>      -0.00312391      -0.00105428       0.00311681 </v>
   <v>       0.00265114      -0.00555916      -0.00265527 </v>
   <v>      -0.00051299       0.00215950      -0.00369342 </v>
   <v>       0.00284999       0.00168113       0.00140428 </v>
   <v>      -0.00412036       0.00197632       0.00183155 </v>
   <v>       0.00141552      -0.00066250      -0.00078095 </v>
   <v>      -0.00193302       0.00288489      -0.00082042 </v>
   <v>      -0.00315795      -0.00287798       0.00395088 </v>
   <v>       0.00056825       0.00472130      -0.00139478 </v>
   <v>       0.00044458      -0.00480511       0.00084072 </v>
   <v>      -0.00663762      -0.00391971       0.00405756 </v>
   <v>      -0.00391121       0.00015700      -0.00195996 </v>
   <v>       0.00667028       0.00176587       0.00046042 </v>
   <v>      -0.00043174      -0.00724493       0.00097376 </v>
   <v>       0.00071344       0.00258936       0.00122995 </v>
   <v>       0.00282632       0.00457719      -0.00221932 </v>
   <v>       0.00220072      -0.00232525       0.00478696 </v>
   <v>       0.00209011      -0.00129737       0.00061085 </v>
   <v>       0.00033596      -0.00069978       0.00210629 </v>
   <v>       0.00203673       0.00013521       0.00239062 </v>
   <v>      -0.00227624       0.00066908       0.00128171 </v>
   <v>       0.00213562      -0.00058743      -0.00441566 </v>
   <v>      -0.00251549       0.00168198      -0.00009793 </v>
   <v>      -0.00012880       0.00133024       0.00101833 </v>
   <v>      -0.00108355      -0.00072381       0.00194811 </v>
   <v>       0.00607689      -0.00278603      -0.00274753 </v>
   <v>       0.00142481      -0.00010946      -0.00177917 </v>
   <v>       0.00201313      -0.00479006       0.00115405 </v>
   <v>      -0.00339455       0.00093602      -0.00401276 </v>
   <v>      -0.00126967       0.00166122      -0.00213049 </v>
   <v>      -0.00329326      -0.00178979      -0.00092260 </v>
   <v>       0.00339103       0.00443631      -0.00394008 </v>
   <v>      -0.00015968       0.00191284      -0.00149437 </v>
   <v>      -0.00287504       0.00367442       0.00183670 </v>
   <v>       0.00093187       0.00367299      -0.00462546 </v>
   <v>      -0.00235185       0.00308916      -0.00130902 </v>
   <v>       0.00057359      -0.00703281      -0.00556274 </v>
   <v>      -0.00054187      -0.00166075      -0.00095929 </v>
   <v>       0.00381157       0.00295988       0.00148429 </v>
   <v>      -0.00210575       0.00377093       0.00825147 </v>
   <v>       0.00022802      -0.00198984       0.00279109 </v>
  </varray>
  <varray name="stress" >
   <v>       0.00104358       0.01591791       0.02934198 </v>
   <v>       0.01591792       0.01562456      -0.00988778 </v>
   <v>       0.02934197      -0.00988778      -0.31215462 </v>
  </varray>
  <energy>
   <i name="e_fr_energy">   -376.94889733 </i>
   <i name="e_wo_entrp">   -376.94889733 </i>
   <i name="e_0_energy">     -0.00000000 </i>
  </energy>
  <time name="totalsc">  474.01  477.51</time>
  <eigenvalues>
   <array>
    <dimension dim="1">band</dimension>
    <dimension dim="2">kpoint</dimension>
    <dimension dim="3">spin</dimension>
    <field>eigene</field>
    <field>occ</field>
    <set>
     <set comment="spin 1">
      <set comment="kpoint 1">
       <r>  -27.6515    1.0000 </r>
       <r>  -27.4374    1.0000 </r>
       <r>  -27.0628    1.0000 </r>
       <r>  -25.5247    1.0000 </r>
       <r>  -25.1695    1.0000 </r>
       <r>  -24.8382    1.0000 </r>
       <r>  -24.6239    1.0000 </r>
       <r>  -24.4053    1.0000 </r>
       <r>  -24.3758    1.0000 </r>
       <r>  -22.7787    1.0000 </r>
       <r>  -22.5806    1.0000 </r>
       <r>  -22.5202    1.0000 </r>
       <r>  -21.5341    1.0000 </r>
       <r>  -21.4407    1.0000 </r>
       <r>  -20.3102    1.0000 </r>
       <r>  -20.1670    1.0000 </r>
       <r>  -19.2191    1.0000 </r>
       <r>  -19.1967    1.0000 </r>
       <r>  -19.1354    1.0000 </r>
       <r>  -17.9480    1.0000 </r>
       <r>  -17.8954    1.0000 </r>
       <r>  -17.1124    1.0000 </r>
       <r>  -17.0691    1.0000 </r>
       <r>  -16.8581    1.0000 </r>
       <r>  -16.5128    1.0000 </r>
       <r>  -16.2433    1.0000 </r>
       <r>  -16.0859    1.0000 </r>
       <r>  -15.3670    1.0000 </r>
       <r>  -15.1524    1.0000 </r>
       <r>  -15.0851    1.0000 </r>
       <r>  -14.8935    1.0000 </r>
       <r>  -14.8377    1.0000 </r>
       <r>  -14.2649    1.0000 </r>
       <r>  -14.0634    1.0000 </r>
       <r>  -13.5573    1.0000 </r>
       <r>  -13.2437    1.0000 </r>
       <r>  -13.1392    1.0000 </r>
       <r>  -12.9311    1.0000 </r>
       <r>  -12.7334    1.0000 </r>
       <r>  -12.5378    1.0000 </r>
       <r>  -12.2151    1.0000 </r>
       <r>  -12.1201    1.0000 </r>
       <r>  -11.7872    1.0000 </r>
       <r>  -11.7248    1.0000 </r>
       <r>  -11.5657    1.0000 </r>
       <r>  -11.3457    1.0000 </r>
       <r>  -11.2326    1.0000 </r>
       <r>  -11.1653    1.0000 </r>
       <r>  -11.0629    1.0000 </r>
       <r>  -11.0021    1.0000 </r>
       <r>  -10.8734    1.0000 </r>
       <r>  -10.6883    1.0000 </r>
       <r>  -10.6348    1.0000 </r>
       <r>  -10.5687    1.0000 </r>
       <r>  -10.4172    1.0000 </r>
       <r>  -10.3287    1.0000 </r>
       <r>  -10.2561    1.0000 </r>
       <r>  -10.1778    1.0000 </r>
       <r>  -10.0050    1.0000 </r>
       <r>   -9.9431    1.0000 </r>
       <r>   -9.7166    1.0000 </r>
       <r>   -9.6543    1.0000 </r>
       <r>   -9.5571    1.0000 </r>
       <r>   -9.2616    1.0000 </r>
       <r>   -9.2016    1.0000 </r>
       <r>   -8.9061    1.0000 </r>
       <r>   -8.7604    1.0000 </r>
       <r>   -8.6147    1.0000 </r>
       <r>   -8.5099    1.0000 </r>
       <r>   -8.4228    1.0000 </r>
       <r>   -8.4011    1.0000 </r>
       <r>   -8.3238    1.0000 </r>
       <r>   -8.3066    1.0000 </r>
       <r>   -7.9746    1.0000 </r>
       <r>   -7.6928    1.0000 </r>
       <r>   -7.5741    1.0000 </r>
       <r>   -7.4269    1.0000 </r>
       <r>   -7.3970    1.0000 </r>
       <r>   -7.1526    1.0000 </r>
       <r>   -7.0807    1.0000 </r>
       <r>   -6.8712    1.0000 </r>
       <r>   -6.7894    1.0000 </r>
       <r>   -6.7215    1.0000 </r>
       <r>   -6.4929    1.0000 </r>
       <r>   -6.4573    1.0000 </r>
       <r>   -6.3647    1.0000 </r>
       <r>   -6.2814    1.0000 </r>
       <r>   -6.0485    1.0000 </r>
       <r>   -5.6494    1.0000 </r>
       <r>   -5.5587    1.0000 </r>
       <r>   -5.4680    1.0000 </r>
       <r>   -5.3709    1.0000 </r>
       <r>   -5.2669    1.0000 </r>
       <r>   -2.6859    0.0000 </r>
       <r>   -2.6530    0.0000 </r>
       <r>   -2.4941    0.0000 </r>
       <r>   -2.2282    0.0000 </r>
       <r>   -2.0686    0.0000 </r>
       <r>   -1.8461    0.0000 </r>
       <r>   -1.3064    0.0000 </r>
       <r>   -1.2900    0.0000 </r>
       <r>   -0.9919    0.0000 </r>
       <r>   -0.7371    0.0000 </r>
       <r>   -0.6320    0.0000 </r>
       <r>   -0.2700    0.0000 </r>
       <r>    0.1210    0.0000 </r>
       <r>    0.1513    0.0000 </r>
       <r>    0.2386    0.0000 </r>
       <r>    0.3652    0.0000 </r>
       <r>    0.6200    0.0000 </r>
       <r>    0.7942    0.0000 </r>
       <r>    0.9039    0.0000 </r>
       <r>    0.9747    0.0000 </r>
       <r>    1.0128    0.0000 </r>
       <r>    1.0369    0.0000 </r>
       <r>    1.1606    0.0000 </r>
       <r>    1.2097    0.0000 </r>
       <r>    1.3239    0.0000 </r>
       <r>    1.4644    0.0000 </r>
       <r>    1.4895    0.0000 </r>
       <r>    1.5555    0.0000 </r>
       <r>    1.6997    0.0000 </r>
       <r>    1.7492    0.0000 </r>
       <r>    1.8113    0.0000 </r>
       <r>    1.8416    0.0000 </r>
       <r>    1.8859    0.0000 </r>
       <r>    1.9270    0.0000 </r>
       <r>    1.9451    0.0000 </r>
      </set>
      <set comment="kpoint 2">
       <r>  -27.6515    1.0000 </r>
       <r>  -27.4374    1.0000 </r>
       <r>  -27.0628    1.0000 </r>
       <r>  -25.5247    1.0000 </r>
       <r>  -25.1695    1.0000 </r>
       <r>  -24.8382    1.0000 </r>
       <r>  -24.6239    1.0000 </r>
       <r>  -24.4053    1.0000 </r>
       <r>  -24.3758    1.0000 </r>
       <r>  -22.7786    1.0000 </r>
       <r>  -22.5806    1.0000 </r>
       <r>  -22.5202    1.0000 </r>
       <r>  -21.5340    1.0000 </r>
       <r>  -21.4409    1.0000 </r>
       <r>  -20.3094    1.0000 </r>
       <r>  -20.1670    1.0000 </r>
       <r>  -19.2490    1.0000 </r>
       <r>  -19.1698    1.0000 </r>
       <r>  -19.1321    1.0000 </r>
       <r>  -17.9494    1.0000 </r>
       <r>  -17.8958    1.0000 </r>
       <r>  -17.1129    1.0000 </r>
       <r>  -17.0681    1.0000 </r>
       <r>  -16.8576    1.0000 </r>
       <r>  -16.5128    1.0000 </r>
       <r>  -16.2435    1.0000 </r>
       <r>  -16.0868    1.0000 </r>
       <r>  -15.3676    1.0000 </r>
       <r>  -15.1526    1.0000 </r>
       <r>  -15.0839    1.0000 </r>
       <r>  -14.8926    1.0000 </r>
       <r>  -14.8370    1.0000 </r>
       <r>  -14.2654    1.0000 </r>
       <r>  -14.0643    1.0000 </r>
       <r>  -13.5576    1.0000 </r>
       <r>  -13.2432    1.0000 </r>
       <r>  -13.1411    1.0000 </r>
       <r>  -12.9299    1.0000 </r>
       <r>  -12.7335    1.0000 </r>
       <r>  -12.5376    1.0000 </r>
       <r>  -12.2149    1.0000 </r>
       <r>  -12.1197    1.0000 </r>
       <r>  -11.7895    1.0000 </r>
       <r>  -11.7223    1.0000 </r>
       <r>  -11.5654    1.0000 </r>
       <r>  -11.3456    1.0000 </r>
       <r>  -11.2332    1.0000 </r>
       <r>  -11.1654    1.0000 </r>
       <r>  -11.0628    1.0000 </r>
       <r>  -11.0016    1.0000 </r>
       <r>  -10.8734    1.0000 </r>
       <r>  -10.6884    1.0000 </r>
       <r>  -10.6347    1.0000 </r>
       <r>  -10.5686    1.0000 </r>
       <r>  -10.4179    1.0000 </r>
       <r>  -10.3292    1.0000 </r>
       <r>  -10.2564    1.0000 </r>
       <r>  -10.1776    1.0000 </r>
       <r>  -10.0043    1.0000 </r>
       <r>   -9.9439    1.0000 </r>
       <r>   -9.7160    1.0000 </r>
       <r>   -9.6543    1.0000 </r>
       <r>   -9.5567    1.0000 </r>
       <r>   -9.2617    1.0000 </r>
       <r>   -9.2017    1.0000 </r>
       <r>   -8.9072    1.0000 </r>
       <r>   -8.7605    1.0000 </r>
       <r>   -8.6146    1.0000 </r>
       <r>   -8.5096    1.0000 </r>
       <r>   -8.4235    1.0000 </r>
       <r>   -8.4005    1.0000 </r>
       <r>   -8.3230    1.0000 </r>
       <r>   -8.3066    1.0000 </r>
       <r>   -7.9745    1.0000 </r>
       <r>   -7.6928    1.0000 </r>
       <r>   -7.5740    1.0000 </r>
       <r>   -7.4269    1.0000 </r>
       <r>   -7.3970    1.0000 </r>
       <r>   -7.1526    1.0000 </r>
       <r>   -7.0810    1.0000 </r>
       <r>   -6.8712    1.0000 </r>
       <r>   -6.7902    1.0000 </r>
       <r>   -6.7216    1.0000 </r>
       <r>   -6.4973    1.0000 </r>
       <r>   -6.4550    1.0000 </r>
       <r>   -6.3625    1.0000 </r>
       <r>   -6.2806    1.0000 </r>
       <r>   -6.0482    1.0000 </r>
       <r>   -5.6493    1.0000 </r>
       <r>   -5.5592    1.0000 </r>
       <r>   -5.4681    1.0000 </r>
       <r>   -5.3710    1.0000 </r>
       <r>   -5.2669    1.0000 </r>
       <r>   -2.6860    0.0000 </r>
       <r>   -2.6527    0.0000 </r>
       <r>   -2.4939    0.0000 </r>
       <r>   -2.2290    0.0000 </r>
       <r>   -2.0690    0.0000 </r>
       <r>   -1.8463    0.0000 </r>
       <r>   -1.3097    0.0000 </r>
       <r>   -1.2850    0.0000 </r>
       <r>   -0.9917    0.0000 </r>
       <r>   -0.7369    0.0000 </r>
       <r>   -0.6319    0.0000 </r>
       <r>   -0.2697    0.0000 </r>
       <r>    0.1191    0.0000 </r>
       <r>    0.1494    0.0000 </r>
       <r>    0.2395    0.0000 </r>
       <r>    0.3653    0.0000 </r>
       <r>    0.6193    0.0000 </r>
       <r>    0.7938    0.0000 </r>
       <r>    0.9055    0.0000 </r>
       <r>    0.9688    0.0000 </r>
       <r>    1.0154    0.0000 </r>
       <r>    1.0413    0.0000 </r>
       <r>    1.1608    0.0000 </r>
       <r>    1.2088    0.0000 </r>
       <r>    1.3259    0.0000 </r>
       <r>    1.4609    0.0000 </r>
       <r>    1.4904    0.0000 </r>
       <r>    1.5601    0.0000 </r>
       <r>    1.6970    0.0000 </r>
       <r>    1.7512    0.0000 </r>
       <r>    1.7999    0.0000 </r>
       <r>    1.8497    0.0000 </r>
       <r>    1.8793    0.0000 </r>
       <r>    1.9257    0.0000 </r>
       <r>    1.9466    0.0000 </r>
      </set>
      <set comment="kpoint 3">
       <r>  -27.6515    1.0000 </r>
       <r>  -27.4374    1.0000 </r>
       <r>  -27.0628    1.0000 </r>
       <r>  -25.5247    1.0000 </r>
       <r>  -25.1695    1.0000 </r>
       <r>  -24.8382    1.0000 </r>
       <r>  -24.6239    1.0000 </r>
       <r>  -24.4053    1.0000 </r>
       <r>  -24.3758    1.0000 </r>
       <r>  -22.7784    1.0000 </r>
       <r>  -22.5808    1.0000 </r>
       <r>  -22.5202    1.0000 </r>
       <r>  -21.5336    1.0000 </r>
       <r>  -21.4415    1.0000 </r>
       <r>  -20.3069    1.0000 </r>
       <r>  -20.1669    1.0000 </r>
       <r>  -19.2880    1.0000 </r>
       <r>  -19.1498    1.0000 </r>
       <r>  -19.1119    1.0000 </r>
       <r>  -17.9536    1.0000 </r>
       <r>  -17.8967    1.0000 </r>
       <r>  -17.1142    1.0000 </r>
       <r>  -17.0650    1.0000 </r>
       <r>  -16.8561    1.0000 </r>
       <r>  -16.5128    1.0000 </r>
       <r>  -16.2442    1.0000 </r>
       <r>  -16.0892    1.0000 </r>
       <r>  -15.3693    1.0000 </r>
       <r>  -15.1532    1.0000 </r>
       <r>  -15.0804    1.0000 </r>
       <r>  -14.8902    1.0000 </r>
       <r>  -14.8348    1.0000 </r>
       <r>  -14.2667    1.0000 </r>
       <r>  -14.0668    1.0000 </r>
       <r>  -13.5585    1.0000 </r>
       <r>  -13.2418    1.0000 </r>
       <r>  -13.1465    1.0000 </r>
       <r>  -12.9264    1.0000 </r>
       <r>  -12.7339    1.0000 </r>
       <r>  -12.5371    1.0000 </r>
       <r>  -12.2146    1.0000 </r>
       <r>  -12.1187    1.0000 </r>
       <r>  -11.7953    1.0000 </r>
       <r>  -11.7157    1.0000 </r>
       <r>  -11.5646    1.0000 </r>
       <r>  -11.3456    1.0000 </r>
       <r>  -11.2347    1.0000 </r>
       <r>  -11.1658    1.0000 </r>
       <r>  -11.0623    1.0000 </r>
       <r>  -11.0001    1.0000 </r>
       <r>  -10.8734    1.0000 </r>
       <r>  -10.6884    1.0000 </r>
       <r>  -10.6344    1.0000 </r>
       <r>  -10.5682    1.0000 </r>
       <r>  -10.4202    1.0000 </r>
       <r>  -10.3306    1.0000 </r>
       <r>  -10.2571    1.0000 </r>
       <r>  -10.1773    1.0000 </r>
       <r>  -10.0021    1.0000 </r>
       <r>   -9.9460    1.0000 </r>
       <r>   -9.7141    1.0000 </r>
       <r>   -9.6545    1.0000 </r>
       <r>   -9.5555    1.0000 </r>
       <r>   -9.2622    1.0000 </r>
       <r>   -9.2020    1.0000 </r>
       <r>   -8.9103    1.0000 </r>
       <r>   -8.7606    1.0000 </r>
       <r>   -8.6140    1.0000 </r>
       <r>   -8.5087    1.0000 </r>
       <r>   -8.4255    1.0000 </r>
       <r>   -8.3986    1.0000 </r>
       <r>   -8.3209    1.0000 </r>
       <r>   -8.3066    1.0000 </r>
       <r>   -7.9744    1.0000 </r>
       <r>   -7.6927    1.0000 </r>
       <r>   -7.5736    1.0000 </r>
       <r>   -7.4270    1.0000 </r>
       <r>   -7.3969    1.0000 </r>
       <r>   -7.1525    1.0000 </r>
       <r>   -7.0816    1.0000 </r>
       <r>   -6.8712    1.0000 </r>
       <r>   -6.7926    1.0000 </r>
       <r>   -6.7220    1.0000 </r>
       <r>   -6.5075    1.0000 </r>
       <r>   -6.4508    1.0000 </r>
       <r>   -6.3565    1.0000 </r>
       <r>   -6.2779    1.0000 </r>
       <r>   -6.0470    1.0000 </r>
       <r>   -5.6491    1.0000 </r>
       <r>   -5.5608    1.0000 </r>
       <r>   -5.4682    1.0000 </r>
       <r>   -5.3714    1.0000 </r>
       <r>   -5.2669    1.0000 </r>
       <r>   -2.6866    0.0000 </r>
       <r>   -2.6518    0.0000 </r>
       <r>   -2.4932    0.0000 </r>
       <r>   -2.2314    0.0000 </r>
       <r>   -2.0703    0.0000 </r>
       <r>   -1.8468    0.0000 </r>
       <r>   -1.3152    0.0000 </r>
       <r>   -1.2745    0.0000 </r>
       <r>   -0.9909    0.0000 </r>
       <r>   -0.7361    0.0000 </r>
       <r>   -0.6316    0.0000 </r>
       <r>   -0.2688    0.0000 </r>
       <r>    0.1136    0.0000 </r>
       <r>    0.1438    0.0000 </r>
       <r>    0.2421    0.0000 </r>
       <r>    0.3654    0.0000 </r>
       <r>    0.6173    0.0000 </r>
       <r>    0.7927    0.0000 </r>
       <r>    0.9098    0.0000 </r>
       <r>    0.9566    0.0000 </r>
       <r>    1.0203    0.0000 </r>
       <r>    1.0521    0.0000 </r>
       <r>    1.1610    0.0000 </r>
       <r>    1.2074    0.0000 </r>
       <r>    1.3314    0.0000 </r>
       <r>    1.4525    0.0000 </r>
       <r>    1.4931    0.0000 </r>
       <r>    1.5717    0.0000 </r>
       <r>    1.6888    0.0000 </r>
       <r>    1.7562    0.0000 </r>
       <r>    1.7826    0.0000 </r>
       <r>    1.8510    0.0000 </r>
       <r>    1.8689    0.0000 </r>
       <r>    1.9221    0.0000 </r>
       <r>    1.9635    0.0000 </r>
      </set>
      <set comment="kpoint 4">
       <r>  -27.6515    1.0000 </r>
       <r>  -27.4374    1.0000 </r>
       <r>  -27.0628    1.0000 </r>
       <r>  -25.5247    1.0000 </r>
       <r>  -25.1695    1.0000 </r>
       <r>  -24.8382    1.0000 </r>
       <r>  -24.6239    1.0000 </r>
       <r>  -24.4054    1.0000 </r>
       <r>  -24.3758    1.0000 </r>
       <r>  -22.7781    1.0000 </r>
       <r>  -22.5811    1.0000 </r>
       <r>  -22.5202    1.0000 </r>
       <r>  -21.5331    1.0000 </r>
       <r>  -21.4426    1.0000 </r>
       <r>  -20.3029    1.0000 </r>
       <r>  -20.1669    1.0000 </r>
       <r>  -19.3274    1.0000 </r>
       <r>  -19.1452    1.0000 </r>
       <r>  -19.0751    1.0000 </r>
       <r>  -17.9605    1.0000 </r>
       <r>  -17.8983    1.0000 </r>
       <r>  -17.1158    1.0000 </r>
       <r>  -17.0606    1.0000 </r>
       <r>  -16.8537    1.0000 </r>
       <r>  -16.5128    1.0000 </r>
       <r>  -16.2453    1.0000 </r>
       <r>  -16.0933    1.0000 </r>
       <r>  -15.3719    1.0000 </r>
       <r>  -15.1539    1.0000 </r>
       <r>  -15.0751    1.0000 </r>
       <r>  -14.8863    1.0000 </r>
       <r>  -14.8311    1.0000 </r>
       <r>  -14.2690    1.0000 </r>
       <r>  -14.0710    1.0000 </r>
       <r>  -13.5600    1.0000 </r>
       <r>  -13.2394    1.0000 </r>
       <r>  -13.1546    1.0000 </r>
       <r>  -12.9214    1.0000 </r>
       <r>  -12.7344    1.0000 </r>
       <r>  -12.5364    1.0000 </r>
       <r>  -12.2140    1.0000 </r>
       <r>  -12.1170    1.0000 </r>
       <r>  -11.8031    1.0000 </r>
       <r>  -11.7067    1.0000 </r>
       <r>  -11.5632    1.0000 </r>
       <r>  -11.3456    1.0000 </r>
       <r>  -11.2371    1.0000 </r>
       <r>  -11.1665    1.0000 </r>
       <r>  -11.0616    1.0000 </r>
       <r>  -10.9976    1.0000 </r>
       <r>  -10.8735    1.0000 </r>
       <r>  -10.6886    1.0000 </r>
       <r>  -10.6339    1.0000 </r>
       <r>  -10.5676    1.0000 </r>
       <r>  -10.4239    1.0000 </r>
       <r>  -10.3328    1.0000 </r>
       <r>  -10.2583    1.0000 </r>
       <r>  -10.1767    1.0000 </r>
       <r>   -9.9988    1.0000 </r>
       <r>   -9.9494    1.0000 </r>
       <r>   -9.7112    1.0000 </r>
       <r>   -9.6549    1.0000 </r>
       <r>   -9.5533    1.0000 </r>
       <r>   -9.2630    1.0000 </r>
       <r>   -9.2025    1.0000 </r>
       <r>   -8.9154    1.0000 </r>
       <r>   -8.7609    1.0000 </r>
       <r>   -8.6131    1.0000 </r>
       <r>   -8.5073    1.0000 </r>
       <r>   -8.4283    1.0000 </r>
       <r>   -8.3962    1.0000 </r>
       <r>   -8.3175    1.0000 </r>
       <r>   -8.3066    1.0000 </r>
       <r>   -7.9741    1.0000 </r>
       <r>   -7.6925    1.0000 </r>
       <r>   -7.5729    1.0000 </r>
       <r>   -7.4271    1.0000 </r>
       <r>   -7.3967    1.0000 </r>
       <r>   -7.1523    1.0000 </r>
       <r>   -7.0826    1.0000 </r>
       <r>   -6.8713    1.0000 </r>
       <r>   -6.7966    1.0000 </r>
       <r>   -6.7225    1.0000 </r>
       <r>   -6.5199    1.0000 </r>
       <r>   -6.4471    1.0000 </r>
       <r>   -6.3482    1.0000 </r>
       <r>   -6.2730    1.0000 </r>
       <r>   -6.0450    1.0000 </r>
       <r>   -5.6489    1.0000 </r>
       <r>   -5.5634    1.0000 </r>
       <r>   -5.4685    1.0000 </r>
       <r>   -5.3720    1.0000 </r>
       <r>   -5.2669    1.0000 </r>
       <r>   -2.6874    0.0000 </r>
       <r>   -2.6502    0.0000 </r>
       <r>   -2.4921    0.0000 </r>
       <r>   -2.2353    0.0000 </r>
       <r>   -2.0723    0.0000 </r>
       <r>   -1.8475    0.0000 </r>
       <r>   -1.3202    0.0000 </r>
       <r>   -1.2615    0.0000 </r>
       <r>   -0.9896    0.0000 </r>
       <r>   -0.7347    0.0000 </r>
       <r>   -0.6312    0.0000 </r>
       <r>   -0.2674    0.0000 </r>
       <r>    0.1049    0.0000 </r>
       <r>    0.1347    0.0000 </r>
       <r>    0.2460    0.0000 </r>
       <r>    0.3656    0.0000 </r>
       <r>    0.6140    0.0000 </r>
       <r>    0.7917    0.0000 </r>
       <r>    0.9141    0.0000 </r>
       <r>    0.9450    0.0000 </r>
       <r>    1.0265    0.0000 </r>
       <r>    1.0646    0.0000 </r>
       <r>    1.1601    0.0000 </r>
       <r>    1.2088    0.0000 </r>
       <r>    1.3383    0.0000 </r>
       <r>    1.4429    0.0000 </r>
       <r>    1.4977    0.0000 </r>
       <r>    1.5865    0.0000 </r>
       <r>    1.6747    0.0000 </r>
       <r>    1.7596    0.0000 </r>
       <r>    1.7731    0.0000 </r>
       <r>    1.8381    0.0000 </r>
       <r>    1.8590    0.0000 </r>
       <r>    1.9364    0.0000 </r>
       <r>    2.0066    0.0000 </r>
      </set>
      <set comment="kpoint 5">
       <r>  -27.6515    1.0000 </r>
       <r>  -27.4374    1.0000 </r>
       <r>  -27.0628    1.0000 </r>
       <r>  -25.5247    1.0000 </r>
       <r>  -25.1695    1.0000 </r>
       <r>  -24.8382    1.0000 </r>
       <r>  -24.6239    1.0000 </r>
       <r>  -24.4054    1.0000 </r>
       <r>  -24.3758    1.0000 </r>
       <r>  -22.7778    1.0000 </r>
       <r>  -22.5816    1.0000 </r>
       <r>  -22.5202    1.0000 </r>
       <r>  -21.5323    1.0000 </r>
       <r>  -21.4440    1.0000 </r>
       <r>  -20.2972    1.0000 </r>
       <r>  -20.1668    1.0000 </r>
       <r>  -19.3664    1.0000 </r>
       <r>  -19.1436    1.0000 </r>
       <r>  -19.0348    1.0000 </r>
       <r>  -17.9701    1.0000 </r>
       <r>  -17.9004    1.0000 </r>
       <r>  -17.1173    1.0000 </r>
       <r>  -17.0553    1.0000 </r>
       <r>  -16.8505    1.0000 </r>
       <r>  -16.5128    1.0000 </r>
       <r>  -16.2469    1.0000 </r>
       <r>  -16.0990    1.0000 </r>
       <r>  -15.3751    1.0000 </r>
       <r>  -15.1547    1.0000 </r>
       <r>  -15.0687    1.0000 </r>
       <r>  -14.8812    1.0000 </r>
       <r>  -14.8253    1.0000 </r>
       <r>  -14.2721    1.0000 </r>
       <r>  -14.0767    1.0000 </r>
       <r>  -13.5624    1.0000 </r>
       <r>  -13.2362    1.0000 </r>
       <r>  -13.1645    1.0000 </r>
       <r>  -12.9160    1.0000 </r>
       <r>  -12.7349    1.0000 </r>
       <r>  -12.5353    1.0000 </r>
       <r>  -12.2133    1.0000 </r>
       <r>  -12.1146    1.0000 </r>
       <r>  -11.8117    1.0000 </r>
       <r>  -11.6966    1.0000 </r>
       <r>  -11.5612    1.0000 </r>
       <r>  -11.3455    1.0000 </r>
       <r>  -11.2403    1.0000 </r>
       <r>  -11.1673    1.0000 </r>
       <r>  -11.0607    1.0000 </r>
       <r>  -10.9945    1.0000 </r>
       <r>  -10.8735    1.0000 </r>
       <r>  -10.6888    1.0000 </r>
       <r>  -10.6333    1.0000 </r>
       <r>  -10.5666    1.0000 </r>
       <r>  -10.4292    1.0000 </r>
       <r>  -10.3352    1.0000 </r>
       <r>  -10.2600    1.0000 </r>
       <r>  -10.1761    1.0000 </r>
       <r>   -9.9948    1.0000 </r>
       <r>   -9.9535    1.0000 </r>
       <r>   -9.7075    1.0000 </r>
       <r>   -9.6553    1.0000 </r>
       <r>   -9.5503    1.0000 </r>
       <r>   -9.2643    1.0000 </r>
       <r>   -9.2032    1.0000 </r>
       <r>   -8.9223    1.0000 </r>
       <r>   -8.7613    1.0000 </r>
       <r>   -8.6118    1.0000 </r>
       <r>   -8.5053    1.0000 </r>
       <r>   -8.4316    1.0000 </r>
       <r>   -8.3936    1.0000 </r>
       <r>   -8.3132    1.0000 </r>
       <r>   -8.3060    1.0000 </r>
       <r>   -7.9737    1.0000 </r>
       <r>   -7.6923    1.0000 </r>
       <r>   -7.5720    1.0000 </r>
       <r>   -7.4272    1.0000 </r>
       <r>   -7.3964    1.0000 </r>
       <r>   -7.1521    1.0000 </r>
       <r>   -7.0841    1.0000 </r>
       <r>   -6.8714    1.0000 </r>
       <r>   -6.8019    1.0000 </r>
       <r>   -6.7232    1.0000 </r>
       <r>   -6.5326    1.0000 </r>
       <r>   -6.4447    1.0000 </r>
       <r>   -6.3395    1.0000 </r>
       <r>   -6.2653    1.0000 </r>
       <r>   -6.0420    1.0000 </r>
       <r>   -5.6486    1.0000 </r>
       <r>   -5.5671    1.0000 </r>
       <r>   -5.4689    1.0000 </r>
       <r>   -5.3729    1.0000 </r>
       <r>   -5.2669    1.0000 </r>
       <r>   -2.6887    0.0000 </r>
       <r>   -2.6480    0.0000 </r>
       <r>   -2.4907    0.0000 </r>
       <r>   -2.2408    0.0000 </r>
       <r>   -2.0749    0.0000 </r>
       <r>   -1.8485    0.0000 </r>
       <r>   -1.3244    0.0000 </r>
       <r>   -1.2467    0.0000 </r>
       <r>   -0.9877    0.0000 </r>
       <r>   -0.7328    0.0000 </r>
       <r>   -0.6306    0.0000 </r>
       <r>   -0.2654    0.0000 </r>
       <r>    0.0932    0.0000 </r>
       <r>    0.1226    0.0000 </r>
       <r>    0.2507    0.0000 </r>
       <r>    0.3660    0.0000 </r>
       <r>    0.6093    0.0000 </r>
       <r>    0.7913    0.0000 </r>
       <r>    0.9116    0.0000 </r>
       <r>    0.9418    0.0000 </r>
       <r>    1.0340    0.0000 </r>
       <r>    1.0748    0.0000 </r>
       <r>    1.1586    0.0000 </r>
       <r>    1.2150    0.0000 </r>
       <r>    1.3444    0.0000 </r>
       <r>    1.4353    0.0000 </r>
       <r>    1.5037    0.0000 </r>
       <r>    1.6004    0.0000 </r>
       <r>    1.6571    0.0000 </r>
       <r>    1.7547    0.0000 </r>
       <r>    1.7785    0.0000 </r>
       <r>    1.8226    0.0000 </r>
       <r>    1.8480    0.0000 </r>
       <r>    1.9565    0.0000 </r>
       <r>    1.9990    0.0000 </r>
      </set>
      <set comment="kpoint 6">
       <r>  -27.6515    1.0000 </r>
       <r>  -27.4374    1.0000 </r>
       <r>  -27.0628    1.0000 </r>
       <r>  -25.5247    1.0000 </r>
       <r>  -25.1695    1.0000 </r>
       <r>  -24.8382    1.0000 </r>
       <r>  -24.6239    1.0000 </r>
       <r>  -24.4054    1.0000 </r>
       <r>  -24.3758    1.0000 </r>
       <r>  -22.7773    1.0000 </r>
       <r>  -22.5821    1.0000 </r>
       <r>  -22.5202    1.0000 </r>
       <r>  -21.5313    1.0000 </r>
       <r>  -21.4459    1.0000 </r>
       <r>  -20.2901    1.0000 </r>
       <r>  -20.1667    1.0000 </r>
       <r>  -19.4049    1.0000 </r>
       <r>  -19.1428    1.0000 </r>
       <r>  -18.9935    1.0000 </r>
       <r>  -17.9823    1.0000 </r>
       <r>  -17.9029    1.0000 </r>
       <r>  -17.1184    1.0000 </r>
       <r>  -17.0494    1.0000 </r>
       <r>  -16.8466    1.0000 </r>
       <r>  -16.5125    1.0000 </r>
       <r>  -16.2487    1.0000 </r>
       <r>  -16.1063    1.0000 </r>
       <r>  -15.3788    1.0000 </r>
       <r>  -15.1553    1.0000 </r>
       <r>  -15.0618    1.0000 </r>
       <r>  -14.8754    1.0000 </r>
       <r>  -14.8171    1.0000 </r>
       <r>  -14.2761    1.0000 </r>
       <r>  -14.0838    1.0000 </r>
       <r>  -13.5657    1.0000 </r>
       <r>  -13.2322    1.0000 </r>
       <r>  -13.1749    1.0000 </r>
       <r>  -12.9109    1.0000 </r>
       <r>  -12.7350    1.0000 </r>
       <r>  -12.5341    1.0000 </r>
       <r>  -12.2125    1.0000 </r>
       <r>  -12.1114    1.0000 </r>
       <r>  -11.8206    1.0000 </r>
       <r>  -11.6862    1.0000 </r>
       <r>  -11.5582    1.0000 </r>
       <r>  -11.3454    1.0000 </r>
       <r>  -11.2442    1.0000 </r>
       <r>  -11.1684    1.0000 </r>
       <r>  -11.0594    1.0000 </r>
       <r>  -10.9907    1.0000 </r>
       <r>  -10.8735    1.0000 </r>
       <r>  -10.6891    1.0000 </r>
       <r>  -10.6329    1.0000 </r>
       <r>  -10.5652    1.0000 </r>
       <r>  -10.4357    1.0000 </r>
       <r>  -10.3377    1.0000 </r>
       <r>  -10.2621    1.0000 </r>
       <r>  -10.1755    1.0000 </r>
       <r>   -9.9907    1.0000 </r>
       <r>   -9.9576    1.0000 </r>
       <r>   -9.7034    1.0000 </r>
       <r>   -9.6556    1.0000 </r>
       <r>   -9.5462    1.0000 </r>
       <r>   -9.2660    1.0000 </r>
       <r>   -9.2039    1.0000 </r>
       <r>   -8.9306    1.0000 </r>
       <r>   -8.7617    1.0000 </r>
       <r>   -8.6101    1.0000 </r>
       <r>   -8.5029    1.0000 </r>
       <r>   -8.4355    1.0000 </r>
       <r>   -8.3911    1.0000 </r>
       <r>   -8.3101    1.0000 </r>
       <r>   -8.3029    1.0000 </r>
       <r>   -7.9732    1.0000 </r>
       <r>   -7.6920    1.0000 </r>
       <r>   -7.5707    1.0000 </r>
       <r>   -7.4274    1.0000 </r>
       <r>   -7.3961    1.0000 </r>
       <r>   -7.1519    1.0000 </r>
       <r>   -7.0861    1.0000 </r>
       <r>   -6.8716    1.0000 </r>
       <r>   -6.8085    1.0000 </r>
       <r>   -6.7241    1.0000 </r>
       <r>   -6.5448    1.0000 </r>
       <r>   -6.4433    1.0000 </r>
       <r>   -6.3320    1.0000 </r>
       <r>   -6.2547    1.0000 </r>
       <r>   -6.0379    1.0000 </r>
       <r>   -5.6483    1.0000 </r>
       <r>   -5.5716    1.0000 </r>
       <r>   -5.4693    1.0000 </r>
       <r>   -5.3740    1.0000 </r>
       <r>   -5.2669    1.0000 </r>
       <r>   -2.6902    0.0000 </r>
       <r>   -2.6452    0.0000 </r>
       <r>   -2.4888    0.0000 </r>
       <r>   -2.2478    0.0000 </r>
       <r>   -2.0778    0.0000 </r>
       <r>   -1.8497    0.0000 </r>
       <r>   -1.3277    0.0000 </r>
       <r>   -1.2305    0.0000 </r>
       <r>   -0.9852    0.0000 </r>
       <r>   -0.7302    0.0000 </r>
       <r>   -0.6298    0.0000 </r>
       <r>   -0.2629    0.0000 </r>
       <r>    0.0785    0.0000 </r>
       <r>    0.1083    0.0000 </r>
       <r>    0.2559    0.0000 </r>
       <r>    0.3666    0.0000 </r>
       <r>    0.6034    0.0000 </r>
       <r>    0.7917    0.0000 </r>
       <r>    0.9018    0.0000 </r>
       <r>    0.9479    0.0000 </r>
       <r>    1.0429    0.0000 </r>
       <r>    1.0805    0.0000 </r>
       <r>    1.1587    0.0000 </r>
       <r>    1.2261    0.0000 </r>
       <r>    1.3479    0.0000 </r>
       <r>    1.4321    0.0000 </r>
       <r>    1.5099    0.0000 </r>
       <r>    1.6059    0.0000 </r>
       <r>    1.6447    0.0000 </r>
       <r>    1.7504    0.0000 </r>
       <r>    1.7851    0.0000 </r>
       <r>    1.8092    0.0000 </r>
       <r>    1.8415    0.0000 </r>
       <r>    1.9652    0.0000 </r>
       <r>    1.9987    0.0000 </r>
      </set>
      <set comment="kpoint 7">
       <r>  -27.6515    1.0000 </r>
       <r>  -27.4374    1.0000 </r>
       <r>  -27.0628    1.0000 </r>
       <r>  -25.5247    1.0000 </r>
       <r>  -25.1695    1.0000 </r>
       <r>  -24.8382    1.0000 </r>
       <r>  -24.6238    1.0000 </r>
       <r>  -24.4054    1.0000 </r>
       <r>  -24.3758    1.0000 </r>
       <r>  -22.7767    1.0000 </r>
       <r>  -22.5827    1.0000 </r>
       <r>  -22.5202    1.0000 </r>
       <r>  -21.5301    1.0000 </r>
       <r>  -21.4480    1.0000 </r>
       <r>  -20.2816    1.0000 </r>
       <r>  -20.1665    1.0000 </r>
       <r>  -19.4428    1.0000 </r>
       <r>  -19.1421    1.0000 </r>
       <r>  -18.9519    1.0000 </r>
       <r>  -17.9972    1.0000 </r>
       <r>  -17.9058    1.0000 </r>
       <r>  -17.1190    1.0000 </r>
       <r>  -17.0434    1.0000 </r>
       <r>  -16.8420    1.0000 </r>
       <r>  -16.5119    1.0000 </r>
       <r>  -16.2508    1.0000 </r>
       <r>  -16.1150    1.0000 </r>
       <r>  -15.3825    1.0000 </r>
       <r>  -15.1558    1.0000 </r>
       <r>  -15.0547    1.0000 </r>
       <r>  -14.8693    1.0000 </r>
       <r>  -14.8061    1.0000 </r>
       <r>  -14.2811    1.0000 </r>
       <r>  -14.0923    1.0000 </r>
       <r>  -13.5700    1.0000 </r>
       <r>  -13.2279    1.0000 </r>
       <r>  -13.1848    1.0000 </r>
       <r>  -12.9072    1.0000 </r>
       <r>  -12.7347    1.0000 </r>
       <r>  -12.5328    1.0000 </r>
       <r>  -12.2118    1.0000 </r>
       <r>  -12.1076    1.0000 </r>
       <r>  -11.8293    1.0000 </r>
       <r>  -11.6761    1.0000 </r>
       <r>  -11.5543    1.0000 </r>
       <r>  -11.3453    1.0000 </r>
       <r>  -11.2487    1.0000 </r>
       <r>  -11.1697    1.0000 </r>
       <r>  -11.0580    1.0000 </r>
       <r>  -10.9866    1.0000 </r>
       <r>  -10.8733    1.0000 </r>
       <r>  -10.6895    1.0000 </r>
       <r>  -10.6327    1.0000 </r>
       <r>  -10.5634    1.0000 </r>
       <r>  -10.4433    1.0000 </r>
       <r>  -10.3400    1.0000 </r>
       <r>  -10.2647    1.0000 </r>
       <r>  -10.1749    1.0000 </r>
       <r>   -9.9882    1.0000 </r>
       <r>   -9.9602    1.0000 </r>
       <r>   -9.6993    1.0000 </r>
       <r>   -9.6559    1.0000 </r>
       <r>   -9.5411    1.0000 </r>
       <r>   -9.2684    1.0000 </r>
       <r>   -9.2046    1.0000 </r>
       <r>   -8.9401    1.0000 </r>
       <r>   -8.7622    1.0000 </r>
       <r>   -8.6080    1.0000 </r>
       <r>   -8.5000    1.0000 </r>
       <r>   -8.4397    1.0000 </r>
       <r>   -8.3889    1.0000 </r>
       <r>   -8.3095    1.0000 </r>
       <r>   -8.2963    1.0000 </r>
       <r>   -7.9726    1.0000 </r>
       <r>   -7.6917    1.0000 </r>
       <r>   -7.5692    1.0000 </r>
       <r>   -7.4276    1.0000 </r>
       <r>   -7.3956    1.0000 </r>
       <r>   -7.1517    1.0000 </r>
       <r>   -7.0886    1.0000 </r>
[...]
       <r>    0.1210    0.0000 </r>
       <r>    0.1513    0.0000 </r>
       <r>    0.2386    0.0000 </r>
       <r>    0.3652    0.0000 </r>
       <r>    0.6200    0.0000 </r>
       <r>    0.7942    0.0000 </r>
       <r>    0.9039    0.0000 </r>
       <r>    0.9747    0.0000 </r>
       <r>    1.0128    0.0000 </r>
       <r>    1.0369    0.0000 </r>
       <r>    1.1606    0.0000 </r>
       <r>    1.2097    0.0000 </r>
       <r>    1.3239    0.0000 </r>
       <r>    1.4645    0.0000 </r>
       <r>    1.4895    0.0000 </r>
       <r>    1.5556    0.0000 </r>
       <r>    1.6997    0.0000 </r>
       <r>    1.7494    0.0000 </r>
       <r>    1.8116    0.0000 </r>
       <r>    1.8417    0.0000 </r>
       <r>    1.8868    0.0000 </r>
       <r>    1.9291    0.0000 </r>
       <r>    1.9534    0.0000 </r>
      </set>
     </set>
    </set>
   </array>
  </eigenvalues>
  <separator name="orbital magnetization" >
   <v name="MAGDIPOLOUT">      0.00000000      0.00000000      0.00000000</v>
  </separator>
  <dos>
   <i name="efermi">     -5.20870210 </i>
   <total>
    <array>
     <dimension dim="1">gridpoints</dimension>
     <dimension dim="2">spin</dimension>
     <field>energy</field>
     <field>total</field>
     <field>integrated</field>
     <set>
      <set comment="spin 1">
       <r>   -29.1381     0.0000     0.0000 </r>
       <r>   -29.0291     0.0000     0.0000 </r>
       <r>   -28.9201     0.0000     0.0000 </r>
       <r>   -28.8111     0.0000     0.0000 </r>
       <r>   -28.7021     0.0000     0.0000 </r>
       <r>   -28.5930     0.0000     0.0000 </r>
       <r>   -28.4840     0.0000     0.0000 </r>
       <r>   -28.3750     0.0000     0.0000 </r>
       <r>   -28.2660     0.0000     0.0000 </r>
       <r>   -28.1570     0.0000     0.0000 </r>
       <r>   -28.0480     0.0000     0.0000 </r>
       <r>   -27.9389     0.0000     0.0000 </r>
       <r>   -27.8299     0.0000     0.0000 </r>
       <r>   -27.7209     0.0000     0.0000 </r>
       <r>   -27.6119    18.3456     2.0000 </r>
       <r>   -27.5029     0.0000     2.0000 </r>
       <r>   -27.3938    18.3456     4.0000 </r>
       <r>   -27.2848     0.0000     4.0000 </r>
       <r>   -27.1758     0.0000     4.0000 </r>
       <r>   -27.0668     5.2227     4.5694 </r>
       <r>   -26.9578     0.0000     6.0000 </r>
       <r>   -26.8488     0.0000     6.0000 </r>
       <r>   -26.7397     0.0000     6.0000 </r>
       <r>   -26.6307     0.0000     6.0000 </r>
       <r>   -26.5217     0.0000     6.0000 </r>
       <r>   -26.4127     0.0000     6.0000 </r>
       <r>   -26.3037     0.0000     6.0000 </r>
       <r>   -26.1946     0.0000     6.0000 </r>
       <r>   -26.0856     0.0000     6.0000 </r>
       <r>   -25.9766     0.0000     6.0000 </r>
       <r>   -25.8676     0.0000     6.0000 </r>
       <r>   -25.7586     0.0000     6.0000 </r>
       <r>   -25.6496     0.0000     6.0000 </r>
       <r>   -25.5405     0.2328     6.0254 </r>
       <r>   -25.4315     0.0000     8.0000 </r>
       <r>   -25.3225     0.0000     8.0000 </r>
       <r>   -25.2135     0.0000     8.0000 </r>
       <r>   -25.1045    18.3456    10.0000 </r>
       <r>   -24.9955     0.0000    10.0000 </r>
       <r>   -24.8864     0.0000    10.0000 </r>
       <r>   -24.7774    18.3456    12.0000 </r>
       <r>   -24.6684     0.0000    12.0000 </r>
       <r>   -24.5594    18.3456    14.0000 </r>
       <r>   -24.4504     0.0000    14.0000 </r>
       <r>   -24.3413    36.6912    18.0000 </r>
       <r>   -24.2323     0.0000    18.0000 </r>
       <r>   -24.1233     0.0000    18.0000 </r>
       <r>   -24.0143     0.0000    18.0000 </r>
       <r>   -23.9053     0.0000    18.0000 </r>
       <r>   -23.7963     0.0000    18.0000 </r>
       <r>   -23.6872     0.0000    18.0000 </r>
       <r>   -23.5782     0.0000    18.0000 </r>
       <r>   -23.4692     0.0000    18.0000 </r>
       <r>   -23.3602     0.0000    18.0000 </r>
       <r>   -23.2512     0.0000    18.0000 </r>
       <r>   -23.1421     0.0000    18.0000 </r>
       <r>   -23.0331     0.0000    18.0000 </r>
       <r>   -22.9241     0.0000    18.0000 </r>
       <r>   -22.8151     0.0000    18.0000 </r>
       <r>   -22.7061    18.3456    20.0000 </r>
       <r>   -22.5971     0.4540    20.0495 </r>
       <r>   -22.4880    24.0021    24.0000 </r>
       <r>   -22.3790     0.0000    24.0000 </r>
       <r>   -22.2700     0.0000    24.0000 </r>
       <r>   -22.1610     0.0000    24.0000 </r>
       <r>   -22.0520     0.0000    24.0000 </r>
       <r>   -21.9429     0.0000    24.0000 </r>
       <r>   -21.8339     0.0000    24.0000 </r>
       <r>   -21.7249     0.0000    24.0000 </r>
       <r>   -21.6159     0.0000    24.0000 </r>
       <r>   -21.5069    15.0734    25.6433 </r>
       <r>   -21.3979    14.8293    28.0000 </r>
       <r>   -21.2888     0.0000    28.0000 </r>
       <r>   -21.1798     0.0000    28.0000 </r>
       <r>   -21.0708     0.0000    28.0000 </r>
       <r>   -20.9618     0.0000    28.0000 </r>
       <r>   -20.8528     0.0000    28.0000 </r>
       <r>   -20.7438     0.0000    28.0000 </r>
       <r>   -20.6347     0.0000    28.0000 </r>
       <r>   -20.5257     0.0000    28.0000 </r>
       <r>   -20.4167     0.0000    28.0000 </r>
       <r>   -20.3077     2.1260    28.2318 </r>
       <r>   -20.1987    10.2660    29.8025 </r>
       <r>   -20.0896     5.6422    30.6151 </r>
       <r>   -19.9806     5.6074    31.2946 </r>
       <r>   -19.8716     4.7481    32.1676 </r>
       <r>   -19.7626     8.6210    33.3398 </r>
       <r>   -19.6536     0.9761    33.5564 </r>
       <r>   -19.5446     0.8585    33.6769 </r>
       <r>   -19.4355     0.5713    33.7789 </r>
       <r>   -19.3265     0.6668    33.8727 </r>
       <r>   -19.2175     1.0620    33.9991 </r>
       <r>   -19.1085    14.4584    36.0762 </r>
       <r>   -18.9995     0.6159    36.1671 </r>
       <r>   -18.8904     0.6693    36.2563 </r>
       <r>   -18.7814     0.5926    36.3479 </r>
       <r>   -18.6724     0.6864    36.4415 </r>
       <r>   -18.5634     0.9553    36.5708 </r>
       <r>   -18.4544     7.7046    37.5733 </r>
       <r>   -18.3454     2.8911    38.0818 </r>
       <r>   -18.2363     7.8761    39.2086 </r>
       <r>   -18.1273     2.3930    39.5442 </r>
       <r>   -18.0183     1.1232    39.7058 </r>
       <r>   -17.9093    18.7680    41.8127 </r>
       <r>   -17.8003     0.0000    42.0000 </r>
       <r>   -17.6913     0.0000    42.0000 </r>
       <r>   -17.5822     0.0000    42.0000 </r>
       <r>   -17.4732     0.0000    42.0000 </r>
       <r>   -17.3642     0.0000    42.0000 </r>
       <r>   -17.2552     0.0000    42.0000 </r>
       <r>   -17.1462     0.0000    42.0000 </r>
       <r>   -17.0371    20.1476    44.2964 </r>
       <r>   -16.9281    13.7592    46.0000 </r>
       <r>   -16.8191     6.8523    46.7470 </r>
       <r>   -16.7101     3.3634    48.0000 </r>
       <r>   -16.6011     0.0000    48.0000 </r>
       <r>   -16.4921     4.8068    48.5240 </r>
       <r>   -16.3830    10.3023    50.0065 </r>
       <r>   -16.2740    10.0241    51.5261 </r>
       <r>   -16.1650    12.4917    53.6285 </r>
       <r>   -16.0560     2.5990    54.0000 </r>
       <r>   -15.9470     0.0000    54.0000 </r>
       <r>   -15.8379     0.0000    54.0000 </r>
       <r>   -15.7289     0.0000    54.0000 </r>
       <r>   -15.6199     0.0000    54.0000 </r>
       <r>   -15.5109     0.0000    54.0000 </r>
       <r>   -15.4019     6.0786    54.6627 </r>
       <r>   -15.2929     5.3508    56.0000 </r>
       <r>   -15.1838     4.6289    56.5046 </r>
       <r>   -15.0748    15.7728    59.3862 </r>
       <r>   -14.9658     3.5162    60.0000 </r>
       <r>   -14.8568     2.2309    60.2432 </r>
       <r>   -14.7478     4.8214    61.0423 </r>
       <r>   -14.6388     7.9524    62.0170 </r>
       <r>   -14.5297     8.5621    63.6501 </r>
       <r>   -14.4207     6.2178    64.5945 </r>
       <r>   -14.3117     3.9984    65.8859 </r>
       <r>   -14.2027     6.5201    67.4941 </r>
       <r>   -14.0937     1.9946    67.7841 </r>
       <r>   -13.9846     0.6115    68.0000 </r>
       <r>   -13.8756     0.0000    68.0000 </r>
       <r>   -13.7666     0.0000    68.0000 </r>
       <r>   -13.6576     0.1999    68.0218 </r>
       <r>   -13.5486    12.5113    69.6640 </r>
       <r>   -13.4396     0.0000    70.0000 </r>
       <r>   -13.3305     0.0000    70.0000 </r>
       <r>   -13.2215    14.4977    71.5805 </r>
       <r>   -13.1125    12.1637    73.3427 </r>
       <r>   -13.0035     0.0045    74.0005 </r>
       <r>   -12.8945    16.6280    75.9961 </r>
       <r>   -12.7854     7.9712    76.8690 </r>
       <r>   -12.6764     8.1808    78.1585 </r>
       <r>   -12.5674     3.5500    78.6870 </r>
       <r>   -12.4584     7.6440    80.0000 </r>
       <r>   -12.3494     0.0000    80.0000 </r>
       <r>   -12.2404     0.0002    80.0000 </r>
       <r>   -12.1313    13.2185    81.6077 </r>
       <r>   -12.0223    12.6789    83.6156 </r>
       <r>   -11.9133     0.0054    84.0006 </r>
       <r>   -11.8043     8.6871    85.8637 </r>
       <r>   -11.6953     4.7924    86.5225 </r>
       <r>   -11.5862     8.5629    88.0002 </r>
       <r>   -11.4772     5.6435    88.8152 </r>
       <r>   -11.3682     7.6478    90.0004 </r>
       <r>   -11.2592    18.0130    93.2637 </r>
       <r>   -11.1502    19.5479    95.9977 </r>
       <r>   -11.0412     9.9516    97.0849 </r>
       <r>   -10.9321    20.1780    99.9998 </r>
       <r>   -10.8231    18.3211   101.9973 </r>
       <r>   -10.7141    12.1231   103.4883 </r>
       <r>   -10.6051    18.3456   106.0000 </r>
       <r>   -10.4961    18.8451   108.0545 </r>
       <r>   -10.3871    15.6508   110.5562 </r>
       <r>   -10.2780    17.4142   113.0485 </r>
       <r>   -10.1690    13.3314   115.3200 </r>
       <r>   -10.0600     0.0100   116.0011 </r>
       <r>    -9.9510    16.4035   118.1049 </r>
       <r>    -9.8420    12.2274   119.9997 </r>
       <r>    -9.7329     0.0078   120.0009 </r>
       <r>    -9.6239    34.8443   123.9986 </r>
       <r>    -9.5149     3.2624   124.3557 </r>
       <r>    -9.4059    12.7010   125.8513 </r>
       <r>    -9.2969     7.5581   126.8240 </r>
       <r>    -9.1879    24.1676   129.9347 </r>
       <r>    -9.0788    11.6659   131.2718 </r>
       <r>    -8.9698     3.0555   131.7331 </r>
       <r>    -8.8608     1.8346   132.0000 </r>
       <r>    -8.7518    18.1147   133.9748 </r>
       <r>    -8.6428     0.0000   134.0000 </r>
       <r>    -8.5337    17.3729   136.0273 </r>
       <r>    -8.4247    22.1853   139.3186 </r>
       <r>    -8.3157    30.9181   143.4873 </r>
       <r>    -8.2067     2.8957   144.5657 </r>
       <r>    -8.0977     8.8991   145.7202 </r>
       <r>    -7.9887    10.9006   147.3217 </r>
       <r>    -7.8796     0.0000   148.0000 </r>
       <r>    -7.7706     0.0000   148.0000 </r>
       <r>    -7.6616    18.3452   150.0000 </r>
       <r>    -7.5526     5.3325   150.5813 </r>
       <r>    -7.4436     6.7328   152.0173 </r>
       <r>    -7.3346    20.4696   155.9982 </r>
       <r>    -7.2255     5.0472   156.5502 </r>
       <r>    -7.1165    13.7908   158.3368 </r>
       <r>    -7.0075    17.3158   160.9877 </r>
       <r>    -6.8985     3.2058   161.5495 </r>
       <r>    -6.7895    17.5038   163.9082 </r>
       <r>    -6.6804    14.3707   166.0000 </r>
       <r>    -6.5714    15.9283   167.7365 </r>
       <r>    -6.4624     1.7256   168.0215 </r>
       <r>    -6.3534     8.1233   170.1189 </r>
       <r>    -6.2444    14.2844   172.1906 </r>
       <r>    -6.1354     3.9517   172.6808 </r>
       <r>    -6.0263     2.4855   174.2710 </r>
       <r>    -5.9173     8.6859   175.3136 </r>
       <r>    -5.8083     3.3634   176.0000 </r>
       <r>    -5.6993     3.8041   176.4147 </r>
       <r>    -5.5903    23.8603   179.3679 </r>
       <r>    -5.4812    11.9028   180.8810 </r>
       <r>    -5.3722    15.1936   183.6564 </r>
       <r>    -5.2632    16.7783   185.8291 </r>
       <r>    -5.1542     0.0000   186.0000 </r>
       <r>    -5.0452     0.0000   186.0000 </r>
       <r>    -4.9362     0.0000   186.0000 </r>
       <r>    -4.8271     0.0000   186.0000 </r>
       <r>    -4.7181     0.0000   186.0000 </r>
       <r>    -4.6091     0.0000   186.0000 </r>
       <r>    -4.5001     0.0000   186.0000 </r>
       <r>    -4.3911     0.0000   186.0000 </r>
       <r>    -4.2820     0.0000   186.0000 </r>
       <r>    -4.1730     0.0000   186.0000 </r>
       <r>    -4.0640     0.0000   186.0000 </r>
       <r>    -3.9550     0.0000   186.0000 </r>
       <r>    -3.8460     0.0000   186.0000 </r>
       <r>    -3.7370     0.0000   186.0000 </r>
       <r>    -3.6279     0.0000   186.0000 </r>
       <r>    -3.5189     0.0000   186.0000 </r>
       <r>    -3.4099     0.0000   186.0000 </r>
       <r>    -3.3009     0.0000   186.0000 </r>
       <r>    -3.1919     0.0000   186.0000 </r>
       <r>    -3.0829     0.0000   186.0000 </r>
       <r>    -2.9738     0.0000   186.0000 </r>
       <r>    -2.8648     0.0000   186.0000 </r>
       <r>    -2.7558     0.0000   186.0000 </r>
       <r>    -2.6468    19.5413   188.1304 </r>
       <r>    -2.5378    14.9551   189.9970 </r>
       <r>    -2.4287    18.2705   191.9918 </r>
       <r>    -2.3197     7.7305   193.6261 </r>
       <r>    -2.2107     2.9008   193.9996 </r>
       <r>    -2.1017     5.2022   194.5671 </r>
       <r>    -1.9927     4.8982   196.0007 </r>
       <r>    -1.8837     7.4353   197.4106 </r>
       <r>    -1.7746     1.9874   198.0000 </r>
       <r>    -1.6656     0.0000   198.0000 </r>
       <r>    -1.5566     0.0000   198.0000 </r>
       <r>    -1.4476     0.0000   198.0000 </r>
       <r>    -1.3386     1.3751   198.1499 </r>
       <r>    -1.2295    11.1525   200.1992 </r>
       <r>    -1.1205     1.6046   200.4249 </r>
       <r>    -1.0115     8.7169   202.0003 </r>
       <r>    -0.9025     4.6132   202.7196 </r>
       <r>    -0.7935     5.4155   204.0071 </r>
       <r>    -0.6845     5.8986   204.8264 </r>
       <r>    -0.5754    12.8754   206.8703 </r>
       <r>    -0.4664     9.6300   207.9998 </r>
       <r>    -0.3574     0.0000   208.0000 </r>
       <r>    -0.2484    13.1770   209.4365 </r>
       <r>    -0.1394    10.7029   211.1668 </r>
       <r>    -0.0304     5.3080   211.8120 </r>
       <r>     0.0787     8.2361   213.2479 </r>
       <r>     0.1877     6.2689   214.3334 </r>
       <r>     0.2967    20.0681   216.7211 </r>
       <r>     0.4057     6.1413   218.0028 </r>
       <r>     0.5147     5.9872   218.9194 </r>
       <r>     0.6238     4.7903   219.7556 </r>
       <r>     0.7328     4.3830   220.4778 </r>
       <r>     0.8418     9.5028   222.1360 </r>
       <r>     0.9508    14.5085   224.4817 </r>
       <r>     1.0598    15.5742   226.4645 </r>
       <r>     1.1688    21.6884   229.0811 </r>
       <r>     1.2779    24.4612   232.4167 </r>
       <r>     1.3869    20.8659   235.6081 </r>
       <r>     1.4959    13.5058   237.8390 </r>
       <r>     1.6049    21.3184   240.8241 </r>
       <r>     1.7139    27.6727   244.7335 </r>
       <r>     1.8230    27.4724   249.0617 </r>
       <r>     1.9320    26.9836   252.8084 </r>
       <r>     2.0410    19.9116   255.7541 </r>
       <r>     2.1500     0.6115   256.0000 </r>
       <r>     2.2590     0.0000   256.0000 </r>
       <r>     2.3680     0.0000   256.0000 </r>
       <r>     2.4771     0.0000   256.0000 </r>
       <r>     2.5861     0.0000   256.0000 </r>
       <r>     2.6951     0.0000   256.0000 </r>
       <r>     2.8041     0.0000   256.0000 </r>
       <r>     2.9131     0.0000   256.0000 </r>
       <r>     3.0221     0.0000   256.0000 </r>
       <r>     3.1312     0.0000   256.0000 </r>
       <r>     3.2402     0.0000   256.0000 </r>
       <r>     3.3492     0.0000   256.0000 </r>
       <r>     3.4582     0.0000   256.0000 </r>
       <r>     3.5672     0.0000   256.0000 </r>
      </set>
     </set>
    </array>
   </total>
  </dos>
 </calculation>
 <structure name="finalpos" >
  <crystal>
   <varray name="basis" >
    <v>      14.61708344      -0.14655336       0.00000000 </v>
    <v>      -7.44105557      12.88713173       0.00000000 </v>
    <v>       0.00000000       0.00000000      20.00000000 </v>
   </varray>
   <i name="volume">   3745.63536032 </i>
   <varray name="rec_basis" >
    <v>       0.06881146       0.03973187       0.00000000 </v>
    <v>       0.00078253       0.07804862       0.00000000 </v>
    <v>       0.00000000       0.00000000       0.05000000 </v>
   </varray>
  </crystal>
  <varray name="positions" >
   <v>       0.48996043       0.44235666       0.44186864 </v>
   <v>       0.63104284       0.40586542       0.48645472 </v>
   <v>       0.57083266       0.29639848       0.48918103 </v>
   <v>       0.62110413       0.23738411       0.49044581 </v>
   <v>       0.73274071       0.29011648       0.48969513 </v>
   <v>       0.79370034       0.39916615       0.48686433 </v>
   <v>       0.74204951       0.45695712       0.48618287 </v>
   <v>       0.41376438       0.63131528       0.48987229 </v>
   <v>       0.46800794       0.74048634       0.49569581 </v>
   <v>       0.41175323       0.79369880       0.49650721 </v>
   <v>       0.30044308       0.73596906       0.49399288 </v>
   <v>       0.24525990       0.62687828       0.48965460 </v>
   <v>       0.30264400       0.57487253       0.48612827 </v>
   <v>       0.91125806       0.45626978       0.48573354 </v>
   <v>       0.12790544       0.56700052       0.48794678 </v>
   <v>       0.97369891       0.41802066       0.45752778 </v>
   <v>       0.92838049       0.31432908       0.42213309 </v>
   <v>       0.56253812       0.12166019       0.49342134 </v>
   <v>       0.46589922       0.90885385       0.49685386 </v>
   <v>       0.45656407       0.05505583       0.47149697 </v>
   <v>       0.38416527       0.09244274       0.44636430 </v>
   <v>       0.57799820       0.46807491       0.48384727 </v>
   <v>       0.47319489       0.57553842       0.48602518 </v>
   <v>       0.45286107       0.35909610       0.38852022 </v>
   <v>       0.06593087       0.60624967       0.51474600 </v>
   <v>       0.57034107       0.97468822       0.51985779 </v>
   <v>       0.56648430       0.60673469       0.52347888 </v>
   <v>       0.77009778       0.24293718       0.49361857 </v>
   <v>       0.78889830       0.54194231       0.48551061 </v>
   <v>       0.48478638       0.25872726       0.49374606 </v>
   <v>       0.25869261       0.77923738       0.49328711 </v>
   <v>       0.26039742       0.49025397       0.48055484 </v>
   <v>       0.55469135       0.78421130       0.49556284 </v>
   <v>       0.85350006       0.24470271       0.34357313 </v>
   <v>       0.36621424       0.16299660       0.37220232 </v>
   <v>       0.59786827       0.42747668       0.35682966 </v>
   <v>       0.10264106       0.68298606       0.53847654 </v>
   <v>       0.61720586       0.94335445       0.54126476 </v>
   <v>       0.59988494       0.67574698       0.55559173 </v>
   <v>       0.07975515       0.47182647       0.45972472 </v>
   <v>       0.41009658       0.95138286       0.47356055 </v>
   <v>       0.43639481       0.49305153       0.44480044 </v>
   <v>       0.96039777       0.55195634       0.51389283 </v>
   <v>       0.61708822       0.07814487       0.51789372 </v>
   <v>       0.61652151       0.55301883       0.52340124 </v>
   <v>       0.36167695       0.28681891       0.38312512 </v>
   <v>       0.93525125       0.24106745       0.44270436 </v>
   <v>       0.88036961       0.31380143       0.36373911 </v>
   <v>       0.31512922       0.09084505       0.48154290 </v>
   <v>       0.40588793       0.12668507       0.38291378 </v>
   <v>       0.52811906       0.36882095       0.34447524 </v>
  </varray>
 </structure>
</modeling>
