<?xml version="1.0" encoding="ISO-8859-1"?>
<modeling>
 <generator>
  <i name="program" type="string">vasp </i>
  <i name="version" type="string">5.4.4.18Apr17-6-g9f103f2a35  </i>
  <i name="subversion" type="string">(build Jun 07 2020 16:50:00) complex            parallel </i>
  <i name="platform" type="string">LinuxIFC </i>
  <i name="date" type="string">2023 02 11 </i>
  <i name="time" type="string">16:10:01 </i>
 </generator>
 <incar>
  <i type="string" name="SYSTEM">Simulation for cell shape cell volume r</i>
  <i type="int" name="ISTART">     1</i>
  <i type="string" name="PREC">high</i>
  <i type="string" name="ALGO">48</i>
  <i type="int" name="ICHARG">    11</i>
  <i type="int" name="NELM">   200</i>
  <i type="int" name="IBRION">    -1</i>
  <i name="EDIFF">      0.00001000</i>
  <i name="EDIFFG">     -0.01000000</i>
  <i type="int" name="NSW">     0</i>
  <i type="int" name="ISIF">     2</i>
  <i name="ENCUT">    500.00000000</i>
  <i name="POTIM">      0.30000000</i>
  <i type="string" name="LREAL">A</i>
  <i type="int" name="ISMEAR">     0</i>
  <i name="SIGMA">      0.01000000</i>
  <i type="int" name="NWRITE">     0</i>
  <i type="logical" name="LWAVE"> F  </i>
  <i type="logical" name="LCHARG"> F  </i>
  <v type="int" name="KPOINT_BSE">    -1     0     0     0</v>
  <i type="int" name="NELM">   200</i>
  <i type="string" name="GGA">PE</i>
 </incar>
 <structure name="primitive_cell" >
  <crystal>
   <varray name="basis" >
    <v>      38.30019290      -0.01434885       0.00000000 </v>
    <v>     -19.16252141      33.16743316       0.00000000 </v>
    <v>       0.00000000       0.00000000      20.00000000 </v>
   </varray>
   <i name="volume">  25400.88255675 </i>
   <varray name="rec_basis" >
    <v>       0.02611518       0.01508808       0.00000000 </v>
    <v>       0.00001130       0.03015658       0.00000000 </v>
    <v>       0.00000000       0.00000000       0.05000000 </v>
   </varray>
  </crystal>
  <varray name="positions" >
   <v>      -0.34807766       0.23886525      -0.48691657 </v>
   <v>      -0.34781322       0.21279330      -0.49332951 </v>
   <v>      -0.32119981       0.21271890      -0.49861173 </v>
   <v>      -0.38293750       0.17768303      -0.49922657 </v>
   <v>      -0.42273967       0.20286256      -0.48532717 </v>
   <v>      -0.42065224       0.17593560      -0.49523400 </v>
   <v>      -0.38550098       0.13936942       0.49117286 </v>
   <v>      -0.31329977       0.16662629       0.49141332 </v>
   <v>      -0.45533659       0.13909726       0.49535932 </v>
   <v>      -0.35030037       0.13366737       0.49408740 </v>
   <v>      -0.24104759       0.23236283       0.48781802 </v>
   <v>      -0.42076531       0.10531638       0.47829387 </v>
   <v>      -0.45528784       0.10448568       0.47903986 </v>
   <v>      -0.28209132       0.16005793       0.49124410 </v>
   <v>      -0.20629027       0.26607620       0.48789957 </v>
   <v>      -0.49972899       0.16725055       0.49290907 </v>
   <v>      -0.49614099       0.13442071      -0.49955302 </v>
   <v>      -0.24126203       0.19667260       0.48937288 </v>
   <v>      -0.35660438       0.09601477      -0.49913133 </v>
   <v>      -0.28513824       0.12348111       0.49371467 </v>
   <v>       0.49209082       0.23193637       0.48631119 </v>
   <v>      -0.17703859       0.38010796      -0.48468765 </v>
   <v>      -0.32341859       0.09289389      -0.49927810 </v>
   <v>      -0.21305092       0.41872089      -0.48590168 </v>
   <v>      -0.39356440       0.37359761      -0.48555006 </v>
   <v>       0.47308249       0.09704816      -0.48800024 </v>
   <v>       0.46240077       0.16058963       0.49118901 </v>
   <v>      -0.17075317       0.26662799       0.48931961 </v>
   <v>      -0.20641041       0.19423464       0.49053411 </v>
   <v>       0.49304112       0.26662191       0.48668262 </v>
   <v>       0.45712027       0.19633354       0.48813667 </v>
   <v>      -0.44664543       0.34665454      -0.49673133 </v>
   <v>      -0.14145707       0.33893602       0.49370436 </v>
   <v>      -0.41998846       0.37328377      -0.49101275 </v>
   <v>      -0.16882742       0.23024105       0.49041061 </v>
   <v>      -0.15011340       0.40916859      -0.49452519 </v>
   <v>      -0.18702050       0.44506135      -0.49284108 </v>
   <v>      -0.20845496       0.16478779       0.49229094 </v>
   <v>      -0.13496006       0.30763479       0.49247507 </v>
   <v>       0.43642010       0.09288654      -0.49356960 </v>
   <v>       0.42899811       0.12320561       0.49312116 </v>
   <v>      -0.33271721       0.05041003      -0.49115799 </v>
   <v>      -0.15189970       0.44509759      -0.49870248 </v>
   <v>      -0.35876391       0.03091746      -0.43994543 </v>
   <v>      -0.18697370       0.47173601      -0.49805426 </v>
   <v>      -0.10857230       0.37530249      -0.49841316 </v>
   <v>       0.45751897       0.26673808       0.48924103 </v>
   <v>      -0.11322513       0.41141617       0.49633723 </v>
   <v>      -0.35481781       0.44821471      -0.48490493 </v>
   <v>       0.41877970       0.19434151       0.48981788 </v>
   <v>      -0.41991586       0.40836193      -0.49786622 </v>
   <v>      -0.13366808       0.22976477       0.49099412 </v>
   <v>       0.49943547       0.33870561       0.49293804 </v>
   <v>      -0.09766461       0.31151765       0.49478075 </v>
   <v>      -0.32017151       0.03112299       0.46448662 </v>
   <v>       0.40304568       0.05065152      -0.48738768 </v>
   <v>      -0.29726027       0.04819474       0.42676258 </v>
   <v>      -0.38387699       0.44605950      -0.49470217 </v>
   <v>       0.42025750       0.23184642       0.49060771 </v>
   <v>       0.40921967       0.02962559      -0.43912707 </v>
   <v>      -0.10782512       0.25684757       0.49799638 </v>
   <v>       0.46164131       0.30748603       0.49182285 </v>
   <v>       0.38434676       0.13331773       0.49683323 </v>
   <v>      -0.13419359       0.20345339       0.49955302 </v>
   <v>      -0.37855037      -0.00858117      -0.43996083 </v>
   <v>      -0.11359037       0.48088239       0.49150730 </v>
   <v>       0.38313132       0.15919384       0.49040415 </v>
   <v>      -0.07124302       0.38182904      -0.48662721 </v>
   <v>       0.37887071       0.08354378       0.42115112 </v>
   <v>      -0.45567326       0.41089027       0.49242211 </v>
   <v>      -0.07862140       0.44607051       0.47993753 </v>
   <v>      -0.06722990       0.34925992      -0.49222067 </v>
   <v>      -0.49657516       0.37566533       0.49554255 </v>
   <v>       0.37031359       0.03204535       0.46719891 </v>
   <v>      -0.20685182      -0.46797066       0.49081889 </v>
   <v>      -0.34002047      -0.01136942       0.46617944 </v>
   <v>      -0.07951562       0.47973367       0.47866314 </v>
   <v>      -0.14095637      -0.47431948       0.49146763 </v>
   <v>       0.39279755       0.23376742       0.49298442 </v>
   <v>       0.38947355      -0.00987936      -0.43883472 </v>
   <v>      -0.37257566      -0.02980996      -0.48805130 </v>
   <v>      -0.24055170      -0.46694918       0.49014693 </v>
   <v>       0.35938074       0.05347515       0.42588139 </v>
   <v>      -0.38602988       0.48066685       0.49526381 </v>
   <v>       0.35735436       0.15966278       0.49942849 </v>
   <v>      -0.10795807      -0.47824754       0.49450837 </v>
   <v>       0.42803733       0.31044948       0.49383610 </v>
   <v>      -0.05859754       0.30077103       0.42230280 </v>
   <v>      -0.31344463      -0.47505464       0.49302970 </v>
   <v>      -0.45447062       0.44605855       0.47889033 </v>
   <v>       0.36319117      -0.02955611      -0.48967296 </v>
   <v>       0.48578032      -0.08352028       0.48064135 </v>
   <v>       0.34204359       0.03925065       0.38554751 </v>
   <v>      -0.44258950      -0.07620260      -0.48736812 </v>
   <v>       0.35042536      -0.01045037       0.46599648 </v>
   <v>       0.47201590       0.38186814      -0.49779222 </v>
   <v>      -0.02504590       0.35801247      -0.48656433 </v>
   <v>       0.45127702      -0.08430996       0.48007328 </v>
   <v>      -0.34985836      -0.47854912       0.49989197 </v>
   <v>      -0.17113494      -0.43245199       0.49031194 </v>
   <v>      -0.32920209      -0.03294923       0.42502836 </v>
   <v>      -0.31190821      -0.01887302       0.38458493 </v>
   <v>      -0.42071304       0.48056831       0.47900138 </v>
   <v>      -0.13448689      -0.43657337       0.49208968 </v>
   <v>      -0.40597635      -0.07207292      -0.49357337 </v>
   <v>       0.43569372       0.34866164      -0.49843107 </v>
   <v>      -0.24110879      -0.43196786       0.48916406 </v>
   <v>       0.38712594      -0.07512462      -0.49683980 </v>
   <v>      -0.02852986       0.31126511       0.42664157 </v>
   <v>      -0.28214621      -0.43721472       0.49139278 </v>
   <v>      -0.07035142      -0.44684056      -0.49815244 </v>
   <v>      -0.00372997       0.38536852      -0.43869214 </v>
   <v>       0.32733739      -0.02768263       0.42861746 </v>
   <v>      -0.00678386       0.34364821       0.46780913 </v>
   <v>       0.35392086      -0.07203342      -0.49749438 </v>
   <v>      -0.34869171      -0.06303614       0.42061506 </v>
   <v>      -0.47342382      -0.11356381      -0.49878983 </v>
   <v>       0.48579261      -0.11818409       0.49664110 </v>
   <v>      -0.01453463       0.30797131       0.38616844 </v>
   <v>       0.41605652      -0.11836655       0.49318320 </v>
   <v>      -0.16869344      -0.39516177       0.48942045 </v>
   <v>      -0.35643157      -0.44771573      -0.48937865 </v>
   <v>      -0.09794604      -0.40296041       0.49505053 </v>
   <v>       0.38084208      -0.11274525       0.49618259 </v>
   <v>      -0.39866779      -0.10245691       0.49305123 </v>
   <v>      -0.20470367      -0.39363040       0.48888629 </v>
   <v>      -0.06731141      -0.41056337      -0.49819238 </v>
   <v>       0.40255012       0.35800825      -0.49020945 </v>
   <v>      -0.28604339      -0.40379531       0.49265337 </v>
   <v>       0.03577107       0.40502583      -0.43883554 </v>
   <v>      -0.32383025      -0.41111817      -0.49484478 </v>
   <v>       0.31567437      -0.10262385       0.49515799 </v>
   <v>       0.03572198       0.36608093       0.46619432 </v>
   <v>       0.36434780       0.32217640       0.42844251 </v>
   <v>       0.40948254       0.38436416      -0.43932259 </v>
   <v>      -0.13923762      -0.36769649       0.48981438 </v>
   <v>       0.45113085      -0.15502343      -0.49380822 </v>
   <v>      -0.46993381      -0.14642297       0.49331386 </v>
   <v>      -0.43208516      -0.13982025       0.49135994 </v>
   <v>       0.41344761      -0.15668164      -0.49714615 </v>
   <v>       0.37049564       0.34534035       0.46581665 </v>
   <v>      -0.35406963      -0.11261406       0.49612696 </v>
   <v>       0.05512287       0.39810394      -0.48980610 </v>
   <v>       0.34385950      -0.14573457       0.49332651 </v>
   <v>      -0.20418834      -0.35798649       0.48771113 </v>
   <v>      -0.02480851      -0.37733036      -0.49033262 </v>
   <v>      -0.23123483      -0.35914599       0.49453967 </v>
   <v>       0.05272749       0.36000668       0.42870034 </v>
   <v>       0.31264102      -0.13920227       0.49298819 </v>
   <v>      -0.00518182      -0.38394932      -0.43945913 </v>
   <v>       0.45322633      -0.18198160      -0.48426412 </v>
   <v>       0.38989828       0.40424626      -0.43934566 </v>
   <v>      -0.17784907      -0.33207139       0.49559287 </v>
   <v>      -0.35286185      -0.13848835       0.48959129 </v>
   <v>      -0.33261021      -0.37770402      -0.48894881 </v>
   <v>       0.37827241      -0.19165903      -0.49053148 </v>
   <v>      -0.27595550      -0.35395622       0.41881519 </v>
   <v>      -0.42684453      -0.17559183       0.48828700 </v>
   <v>       0.35170113      -0.19150953      -0.49603685 </v>
   <v>       0.34808695       0.36542688       0.46737440 </v>
   <v>      -0.35969225      -0.38381291      -0.44054780 </v>
   <v>      -0.00562120      -0.34551941       0.46517525 </v>
   <v>      -0.02281688      -0.33968105       0.42771611 </v>
   <v>       0.09758376       0.43126595      -0.49826090 </v>
   <v>       0.10060040       0.46752565      -0.49877772 </v>
   <v>      -0.32704047      -0.13893280       0.49825025 </v>
   <v>       0.03431983      -0.36428871      -0.43994067 </v>
   <v>       0.36255287       0.39818303      -0.48723323 </v>
   <v>      -0.38851881      -0.17364311       0.48948543 </v>
   <v>       0.37844771      -0.21781211      -0.48463244 </v>
   <v>       0.27185359      -0.17585352       0.49113203 </v>
   <v>       0.23902852      -0.14397322       0.49176023 </v>
   <v>      -0.28635188      -0.33435989       0.42381746 </v>
   <v>      -0.31847552      -0.34501206       0.46560667 </v>
   <v>       0.10976243      -0.45917884       0.47764100 </v>
   <v>       0.31207345       0.33723001       0.38614056 </v>
   <v>      -0.46182498      -0.21116573       0.48694665 </v>
   <v>       0.31559643       0.35471437       0.42644746 </v>
   <v>       0.10882752      -0.42553007       0.47818503 </v>
   <v>       0.23700625      -0.17341921       0.49084268 </v>
   <v>       0.05539230      -0.33714359      -0.48822926 </v>
   <v>      -0.37922946      -0.36387965      -0.43974675 </v>
   <v>       0.03689156      -0.32298193       0.46628858 </v>
   <v>       0.12820372       0.42365008       0.49507711 </v>
   <v>       0.27166262      -0.21155467       0.49115965 </v>
   <v>      -0.28319271      -0.31693484       0.38361075 </v>
   <v>       0.13824119       0.49894810       0.49460239 </v>
   <v>       0.10139606      -0.36116324      -0.48933534 </v>
   <v>       0.35383403       0.43162444      -0.49301268 </v>
   <v>       0.38639252       0.46823015      -0.48686883 </v>
   <v>       0.14381812      -0.46022312       0.49126064 </v>
   <v>      -0.39008487      -0.21119677       0.49031330 </v>
   <v>       0.30518243       0.37433833       0.42209454 </v>
   <v>      -0.34083707      -0.32488030       0.46490271 </v>
   <v>      -0.37254930      -0.33748057      -0.49041592 </v>
   <v>       0.45100237      -0.46010459       0.48059057 </v>
   <v>      -0.46288676      -0.24590630       0.48736798 </v>
   <v>       0.09757697      -0.32844048      -0.49421360 </v>
   <v>       0.14337349      -0.39079110       0.49463926 </v>
   <v>       0.04425800      -0.28758652       0.38442923 </v>
   <v>       0.48469763      -0.42553206       0.48004934 </v>
   <v>       0.05843374      -0.29065841       0.42485098 </v>
   <v>      -0.36265341      -0.21318280       0.49237097 </v>
   <v>       0.16475877       0.45728790       0.49248194 </v>
   <v>       0.17128026       0.49504872       0.49248709 </v>
   <v>       0.19942634      -0.20942490       0.49042894 </v>
   <v>      -0.42738639      -0.24607174       0.48945449 </v>
   <v>       0.13878375      -0.35463833       0.49971418 </v>
   <v>       0.23689887      -0.24525244       0.49058284 </v>
   <v>      -0.44198954      -0.36128841      -0.49773595 </v>
   <v>      -0.33497118      -0.30175176       0.42760391 </v>
   <v>       0.16481317      -0.18252843       0.49796847 </v>
   <v>       0.31613785       0.42432141       0.49350902 </v>
   <v>       0.37999722       0.49903484      -0.49926040 </v>
   <v>       0.16939967       0.38844175       0.49261270 </v>
   <v>       0.08846903      -0.28019191       0.42005760 </v>
   <v>       0.18203901      -0.42439489      -0.49872319 </v>
   <v>      -0.40567851      -0.32807833      -0.49807865 </v>
   <v>       0.41620549      -0.46018569       0.49599698 </v>
   <v>       0.20133458      -0.24582653       0.49007147 </v>
   <v>       0.16431179      -0.20888949       0.49010780 </v>
   <v>       0.18022439      -0.38847472      -0.49544433 </v>
   <v>       0.12815624      -0.29062927       0.49367077 </v>
   <v>       0.48575756      -0.39031236       0.49242400 </v>
   <v>       0.26109608       0.37956555       0.49692293 </v>
   <v>       0.20137685       0.45316412       0.49037579 </v>
   <v>      -0.47337007      -0.35504803       0.49543269 </v>
   <v>       0.19886641       0.41585801       0.49086351 </v>
   <v>       0.17180287      -0.31822460       0.49308632 </v>
   <v>       0.31230409       0.45775506       0.49120057 </v>
   <v>      -0.43157824      -0.28685202       0.49207772 </v>
   <v>       0.34368284       0.49554634       0.49213456 </v>
   <v>       0.21723211      -0.45086632      -0.49705188 </v>
   <v>       0.21713789      -0.42427410      -0.49168403 </v>
   <v>       0.16544028      -0.28683870       0.49206224 </v>
   <v>       0.13838088      -0.23595715       0.49663941 </v>
   <v>       0.20707590      -0.35937150      -0.48553272 </v>
   <v>      -0.39801884      -0.28983816       0.49467993 </v>
   <v>       0.41393625      -0.42555184      -0.49509089 </v>
   <v>       0.47662761      -0.32609250      -0.49821592 </v>
   <v>       0.23410811       0.37852463       0.49020906 </v>
   <v>       0.44992518      -0.38781641      -0.49866048 </v>
   <v>      -0.46937042      -0.31808564       0.49254488 </v>
   <v>       0.20774139       0.35280565       0.49900844 </v>
   <v>       0.23710245       0.48865193       0.48906557 </v>
   <v>       0.24316600      -0.39781088      -0.48565767 </v>
   <v>       0.42350820      -0.35302445      -0.48728710 </v>
   <v>       0.23482358       0.41425976       0.49006279 </v>
   <v>       0.44991073      -0.35272073      -0.49302762 </v>
   <v>       0.38481908      -0.42770794      -0.48589278 </v>
   <v>       0.27128097       0.45255384       0.48875914 </v>
   <v>       0.27076494       0.48756161       0.48823534 </v>
  </varray>
 </structure>
 <varray name="primitive_index" >
  <v type="int" >        1 </v>
  <v type="int" >      211 </v>
  <v type="int" >        2 </v>
  <v type="int" >       93 </v>
  <v type="int" >        3 </v>
  <v type="int" >       92 </v>
  <v type="int" >       94 </v>
  <v type="int" >      197 </v>
  <v type="int" >       91 </v>
  <v type="int" >       90 </v>
  <v type="int" >      204 </v>
  <v type="int" >      235 </v>
  <v type="int" >      236 </v>
  <v type="int" >       89 </v>
  <v type="int" >      203 </v>
  <v type="int" >      164 </v>
  <v type="int" >       57 </v>
  <v type="int" >      123 </v>
  <v type="int" >      198 </v>
  <v type="int" >      196 </v>
  <v type="int" >      199 </v>
  <v type="int" >        9 </v>
  <v type="int" >       88 </v>
  <v type="int" >        7 </v>
  <v type="int" >        4 </v>
  <v type="int" >      165 </v>
  <v type="int" >       56 </v>
  <v type="int" >      126 </v>
  <v type="int" >      124 </v>
  <v type="int" >      200 </v>
  <v type="int" >      118 </v>
  <v type="int" >        5 </v>
  <v type="int" >      170 </v>
  <v type="int" >      212 </v>
  <v type="int" >      125 </v>
  <v type="int" >      100 </v>
  <v type="int" >      213 </v>
  <v type="int" >       27 </v>
  <v type="int" >       62 </v>
  <v type="int" >       55 </v>
  <v type="int" >      163 </v>
  <v type="int" >      151 </v>
  <v type="int" >      101 </v>
  <v type="int" >      224 </v>
  <v type="int" >        8 </v>
  <v type="int" >       63 </v>
  <v type="int" >      115 </v>
  <v type="int" >       99 </v>
  <v type="int" >        6 </v>
  <v type="int" >      117 </v>
  <v type="int" >       97 </v>
  <v type="int" >      231 </v>
  <v type="int" >      194 </v>
  <v type="int" >      169 </v>
  <v type="int" >      152 </v>
  <v type="int" >      142 </v>
  <v type="int" >       48 </v>
  <v type="int" >       96 </v>
  <v type="int" >      116 </v>
  <v type="int" >      217 </v>
  <v type="int" >       26 </v>
  <v type="int" >       86 </v>
  <v type="int" >       20 </v>
  <v type="int" >       25 </v>
  <v type="int" >      223 </v>
  <v type="int" >      102 </v>
  <v type="int" >      229 </v>
  <v type="int" >      171 </v>
  <v type="int" >       38 </v>
  <v type="int" >       98 </v>
  <v type="int" >      240 </v>
  <v type="int" >       61 </v>
  <v type="int" >       87 </v>
  <v type="int" >      141 </v>
  <v type="int" >      202 </v>
  <v type="int" >      153 </v>
  <v type="int" >      239 </v>
  <v type="int" >      191 </v>
  <v type="int" >       21 </v>
  <v type="int" >      218 </v>
  <v type="int" >      154 </v>
  <v type="int" >      201 </v>
  <v type="int" >      247 </v>
  <v type="int" >       95 </v>
  <v type="int" >       19 </v>
  <v type="int" >       84 </v>
  <v type="int" >      193 </v>
  <v type="int" >       44 </v>
  <v type="int" >      167 </v>
  <v type="int" >      237 </v>
  <v type="int" >      139 </v>
  <v type="int" >      242 </v>
  <v type="int" >       37 </v>
  <v type="int" >      174 </v>
  <v type="int" >      140 </v>
  <v type="int" >      195 </v>
  <v type="int" >      150 </v>
  <v type="int" >      241 </v>
  <v type="int" >       60 </v>
  <v type="int" >      119 </v>
  <v type="int" >      250 </v>
  <v type="int" >       46 </v>
  <v type="int" >      238 </v>
  <v type="int" >       83 </v>
  <v type="int" >       64 </v>
  <v type="int" >       85 </v>
  <v type="int" >      122 </v>
  <v type="int" >      189 </v>
  <v type="int" >      249 </v>
  <v type="int" >       59 </v>
  <v type="int" >      192 </v>
  <v type="int" >      221 </v>
  <v type="int" >       39 </v>
  <v type="int" >      149 </v>
  <v type="int" >       79 </v>
  <v type="int" >       47 </v>
  <v type="int" >       66 </v>
  <v type="int" >      103 </v>
  <v type="int" >       43 </v>
  <v type="int" >      106 </v>
  <v type="int" >      120 </v>
  <v type="int" >      168 </v>
  <v type="int" >      190 </v>
  <v type="int" >       81 </v>
  <v type="int" >      172 </v>
  <v type="int" >      121 </v>
  <v type="int" >       82 </v>
  <v type="int" >      155 </v>
  <v type="int" >      166 </v>
  <v type="int" >      222 </v>
  <v type="int" >       58 </v>
  <v type="int" >      187 </v>
  <v type="int" >      148 </v>
  <v type="int" >       51 </v>
  <v type="int" >      226 </v>
  <v type="int" >       24 </v>
  <v type="int" >      104 </v>
  <v type="int" >      173 </v>
  <v type="int" >       65 </v>
  <v type="int" >      105 </v>
  <v type="int" >      156 </v>
  <v type="int" >       29 </v>
  <v type="int" >      147 </v>
  <v type="int" >      188 </v>
  <v type="int" >      230 </v>
  <v type="int" >      159 </v>
  <v type="int" >       23 </v>
  <v type="int" >       45 </v>
  <v type="int" >       80 </v>
  <v type="int" >      228 </v>
  <v type="int" >       12 </v>
  <v type="int" >      225 </v>
  <v type="int" >       22 </v>
  <v type="int" >      232 </v>
  <v type="int" >      146 </v>
  <v type="int" >      214 </v>
  <v type="int" >       41 </v>
  <v type="int" >      130 </v>
  <v type="int" >       11 </v>
  <v type="int" >      157 </v>
  <v type="int" >      219 </v>
  <v type="int" >      160 </v>
  <v type="int" >       54 </v>
  <v type="int" >       73 </v>
  <v type="int" >      183 </v>
  <v type="int" >       28 </v>
  <v type="int" >      227 </v>
  <v type="int" >      158 </v>
  <v type="int" >      129 </v>
  <v type="int" >       10 </v>
  <v type="int" >      135 </v>
  <v type="int" >       36 </v>
  <v type="int" >      248 </v>
  <v type="int" >      145 </v>
  <v type="int" >      245 </v>
  <v type="int" >       49 </v>
  <v type="int" >      205 </v>
  <v type="int" >      251 </v>
  <v type="int" >      246 </v>
  <v type="int" >      136 </v>
  <v type="int" >      162 </v>
  <v type="int" >      220 </v>
  <v type="int" >      161 </v>
  <v type="int" >      181 </v>
  <v type="int" >      210 </v>
  <v type="int" >       40 </v>
  <v type="int" >       75 </v>
  <v type="int" >      180 </v>
  <v type="int" >       67 </v>
  <v type="int" >      177 </v>
  <v type="int" >      114 </v>
  <v type="int" >      128 </v>
  <v type="int" >       50 </v>
  <v type="int" >      144 </v>
  <v type="int" >      143 </v>
  <v type="int" >      244 </v>
  <v type="int" >      206 </v>
  <v type="int" >       70 </v>
  <v type="int" >      111 </v>
  <v type="int" >       52 </v>
  <v type="int" >      243 </v>
  <v type="int" >      252 </v>
  <v type="int" >       30 </v>
  <v type="int" >       74 </v>
  <v type="int" >      182 </v>
  <v type="int" >      137 </v>
  <v type="int" >      127 </v>
  <v type="int" >       72 </v>
  <v type="int" >      209 </v>
  <v type="int" >      186 </v>
  <v type="int" >       42 </v>
  <v type="int" >       34 </v>
  <v type="int" >      175 </v>
  <v type="int" >       69 </v>
  <v type="int" >       33 </v>
  <v type="int" >       53 </v>
  <v type="int" >      113 </v>
  <v type="int" >       76 </v>
  <v type="int" >      107 </v>
  <v type="int" >      138 </v>
  <v type="int" >      234 </v>
  <v type="int" >      112 </v>
  <v type="int" >      178 </v>
  <v type="int" >      110 </v>
  <v type="int" >       32 </v>
  <v type="int" >      131 </v>
  <v type="int" >       78 </v>
  <v type="int" >      132 </v>
  <v type="int" >      179 </v>
  <v type="int" >       68 </v>
  <v type="int" >       77 </v>
  <v type="int" >      176 </v>
  <v type="int" >       17 </v>
  <v type="int" >      216 </v>
  <v type="int" >       71 </v>
  <v type="int" >       35 </v>
  <v type="int" >       18 </v>
  <v type="int" >      184 </v>
  <v type="int" >      108 </v>
  <v type="int" >       14 </v>
  <v type="int" >      233 </v>
  <v type="int" >      109 </v>
  <v type="int" >      185 </v>
  <v type="int" >       31 </v>
  <v type="int" >      208 </v>
  <v type="int" >       16 </v>
  <v type="int" >       13 </v>
  <v type="int" >      133 </v>
  <v type="int" >      215 </v>
  <v type="int" >       15 </v>
  <v type="int" >      134 </v>
  <v type="int" >      207 </v>
 </varray>
 <kpoints>
  <generation param="listgenerated">
   <i name="divisions" type="int">      20 </i>
   <v>       0.00000000       0.00000000       0.00000000 </v>
   <v>       0.50000000       0.00000000       0.00000000 </v>
   <v>       0.33333333       0.33333333       0.00000000 </v>
   <v>       0.00000000       0.00000000       0.00000000 </v>
  </generation>
  <varray name="kpointlist" >
   <v>       0.00000000       0.00000000       0.00000000 </v>
   <v>       0.02631579       0.00000000       0.00000000 </v>
   <v>       0.05263158       0.00000000       0.00000000 </v>
   <v>       0.07894737       0.00000000       0.00000000 </v>
   <v>       0.10526316       0.00000000       0.00000000 </v>
   <v>       0.13157895       0.00000000       0.00000000 </v>
   <v>       0.15789474       0.00000000       0.00000000 </v>
   <v>       0.18421053       0.00000000       0.00000000 </v>
   <v>       0.21052632       0.00000000       0.00000000 </v>
   <v>       0.23684211       0.00000000       0.00000000 </v>
   <v>       0.26315789       0.00000000       0.00000000 </v>
   <v>       0.28947368       0.00000000       0.00000000 </v>
   <v>       0.31578947       0.00000000       0.00000000 </v>
   <v>       0.34210526       0.00000000       0.00000000 </v>
   <v>       0.36842105       0.00000000       0.00000000 </v>
   <v>       0.39473684       0.00000000       0.00000000 </v>
   <v>       0.42105263       0.00000000       0.00000000 </v>
   <v>       0.44736842       0.00000000       0.00000000 </v>
   <v>       0.47368421       0.00000000       0.00000000 </v>
   <v>       0.50000000       0.00000000       0.00000000 </v>
   <v>       0.50000000       0.00000000       0.00000000 </v>
   <v>       0.49122807       0.01754386       0.00000000 </v>
   <v>       0.48245614       0.03508772       0.00000000 </v>
   <v>       0.47368421       0.05263158       0.00000000 </v>
   <v>       0.46491228       0.07017544       0.00000000 </v>
   <v>       0.45614035       0.08771930       0.00000000 </v>
   <v>       0.44736842       0.10526316       0.00000000 </v>
   <v>       0.43859649       0.12280702       0.00000000 </v>
   <v>       0.42982456       0.14035088       0.00000000 </v>
   <v>       0.42105263       0.15789474       0.00000000 </v>
   <v>       0.41228070       0.17543860       0.00000000 </v>
   <v>       0.40350877       0.19298246       0.00000000 </v>
   <v>       0.39473684       0.21052632       0.00000000 </v>
   <v>       0.38596491       0.22807018       0.00000000 </v>
   <v>       0.37719298       0.24561404       0.00000000 </v>
   <v>       0.36842105       0.26315789       0.00000000 </v>
   <v>       0.35964912       0.28070175       0.00000000 </v>
   <v>       0.35087719       0.29824561       0.00000000 </v>
   <v>       0.34210526       0.31578947       0.00000000 </v>
   <v>       0.33333333       0.33333333       0.00000000 </v>
   <v>       0.33333333       0.33333333       0.00000000 </v>
   <v>       0.31578947       0.31578947       0.00000000 </v>
   <v>       0.29824561       0.29824561       0.00000000 </v>
   <v>       0.28070175       0.28070175       0.00000000 </v>
   <v>       0.26315789       0.26315789       0.00000000 </v>
   <v>       0.24561404       0.24561404       0.00000000 </v>
   <v>       0.22807018       0.22807018       0.00000000 </v>
   <v>       0.21052632       0.21052632       0.00000000 </v>
   <v>       0.19298246       0.19298246       0.00000000 </v>
   <v>       0.17543860       0.17543860       0.00000000 </v>
   <v>       0.15789474       0.15789474       0.00000000 </v>
   <v>       0.14035088       0.14035088       0.00000000 </v>
   <v>       0.12280702       0.12280702       0.00000000 </v>
   <v>       0.10526316       0.10526316       0.00000000 </v>
   <v>       0.08771930       0.08771930       0.00000000 </v>
   <v>       0.07017544       0.07017544       0.00000000 </v>
   <v>       0.05263158       0.05263158       0.00000000 </v>
   <v>       0.03508772       0.03508772       0.00000000 </v>
   <v>       0.01754386       0.01754386       0.00000000 </v>
   <v>       0.00000000       0.00000000       0.00000000 </v>
  </varray>
  <varray name="weights" >
   <v>       0.01666667 </v>
   <v>       0.01666667 </v>
   <v>       0.01666667 </v>
   <v>       0.01666667 </v>
   <v>       0.01666667 </v>
   <v>       0.01666667 </v>
   <v>       0.01666667 </v>
   <v>       0.01666667 </v>
   <v>       0.01666667 </v>
   <v>       0.01666667 </v>
   <v>       0.01666667 </v>
   <v>       0.01666667 </v>
   <v>       0.01666667 </v>
   <v>       0.01666667 </v>
   <v>       0.01666667 </v>
   <v>       0.01666667 </v>
   <v>       0.01666667 </v>
   <v>       0.01666667 </v>
   <v>       0.01666667 </v>
   <v>       0.01666667 </v>
   <v>       0.01666667 </v>
   <v>       0.01666667 </v>
   <v>       0.01666667 </v>
   <v>       0.01666667 </v>
   <v>       0.01666667 </v>
   <v>       0.01666667 </v>
   <v>       0.01666667 </v>
   <v>       0.01666667 </v>
   <v>       0.01666667 </v>
   <v>       0.01666667 </v>
   <v>       0.01666667 </v>
   <v>       0.01666667 </v>
   <v>       0.01666667 </v>
   <v>       0.01666667 </v>
   <v>       0.01666667 </v>
   <v>       0.01666667 </v>
   <v>       0.01666667 </v>
   <v>       0.01666667 </v>
   <v>       0.01666667 </v>
   <v>       0.01666667 </v>
   <v>       0.01666667 </v>
   <v>       0.01666667 </v>
   <v>       0.01666667 </v>
   <v>       0.01666667 </v>
   <v>       0.01666667 </v>
   <v>       0.01666667 </v>
   <v>       0.01666667 </v>
   <v>       0.01666667 </v>
   <v>       0.01666667 </v>
   <v>       0.01666667 </v>
   <v>       0.01666667 </v>
   <v>       0.01666667 </v>
   <v>       0.01666667 </v>
   <v>       0.01666667 </v>
   <v>       0.01666667 </v>
   <v>       0.01666667 </v>
   <v>       0.01666667 </v>
   <v>       0.01666667 </v>
   <v>       0.01666667 </v>
   <v>       0.01666667 </v>
  </varray>
 </kpoints>
 <parameters>
  <separator name="general" >
   <i type="string" name="SYSTEM">Simulation for cell shape cell volume r</i>
   <i type="logical" name="LCOMPAT"> F  </i>
  </separator>
  <separator name="electronic" >
   <i type="string" name="PREC">high</i>
   <i name="ENMAX">    500.00000000</i>
   <i name="ENAUG">    644.87300000</i>
   <i name="EDIFF">      0.00001000</i>
   <i type="int" name="IALGO">    38</i>
   <i type="int" name="IWAVPR">    10</i>
   <i type="int" name="NBANDS">   608</i>
   <i name="NELECT">    936.00000000</i>
   <i type="int" name="TURBO">     0</i>
   <i type="int" name="IRESTART">     0</i>
   <i type="int" name="NREBOOT">     0</i>
   <i type="int" name="NMIN">     0</i>
   <i name="EREF">      0.00000000</i>
   <separator name="electronic smearing" >
    <i type="int" name="ISMEAR">     0</i>
    <i name="SIGMA">      0.01000000</i>
    <i name="KSPACING">      0.50000000</i>
    <i type="logical" name="KGAMMA"> T  </i>
   </separator>
   <separator name="electronic projectors" >
    <i type="logical" name="LREAL"> T  </i>
    <v name="ROPT">     -0.00040000     -0.00040000     -0.00040000</v>
    <i type="int" name="LMAXPAW">  -100</i>
    <i type="int" name="LMAXMIX">     2</i>
    <i type="logical" name="NLSPLINE"> F  </i>
   </separator>
   <separator name="electronic startup" >
    <i type="int" name="ISTART">     1</i>
    <i type="int" name="ICHARG">    11</i>
    <i type="int" name="INIWAV">     1</i>
   </separator>
   <separator name="electronic spin" >
    <i type="int" name="ISPIN">     1</i>
    <i type="logical" name="LNONCOLLINEAR"> F  </i>
    <v name="MAGMOM">      1.00000000      1.00000000      1.00000000      1.00000000      1.00000000      1.00000000      1.00000000      1.00000000      1.00000000      1.00000000      1.00000000      1.00000000      1.00000000      1.00000000      1.00000000      1.00000000      1.00000000      1.00000000      1.00000000      1.00000000
      1.00000000      1.00000000      1.00000000      1.00000000      1.00000000      1.00000000      1.00000000      1.00000000      1.00000000      1.00000000      1.00000000      1.00000000      1.00000000      1.00000000      1.00000000      1.00000000      1.00000000      1.00000000      1.00000000      1.00000000
      1.00000000      1.00000000      1.00000000      1.00000000      1.00000000      1.00000000      1.00000000      1.00000000      1.00000000      1.00000000      1.00000000      1.00000000      1.00000000      1.00000000      1.00000000      1.00000000      1.00000000      1.00000000      1.00000000      1.00000000
      1.00000000      1.00000000      1.00000000      1.00000000      1.00000000      1.00000000      1.00000000      1.00000000      1.00000000      1.00000000      1.00000000      1.00000000      1.00000000      1.00000000      1.00000000      1.00000000      1.00000000      1.00000000      1.00000000      1.00000000
      1.00000000      1.00000000      1.00000000      1.00000000      1.00000000      1.00000000      1.00000000      1.00000000      1.00000000      1.00000000      1.00000000      1.00000000      1.00000000      1.00000000      1.00000000      1.00000000      1.00000000      1.00000000      1.00000000      1.00000000
      1.00000000      1.00000000      1.00000000      1.00000000      1.00000000      1.00000000      1.00000000      1.00000000      1.00000000      1.00000000      1.00000000      1.00000000      1.00000000      1.00000000      1.00000000      1.00000000      1.00000000      1.00000000      1.00000000      1.00000000
      1.00000000      1.00000000      1.00000000      1.00000000      1.00000000      1.00000000      1.00000000      1.00000000      1.00000000      1.00000000      1.00000000      1.00000000      1.00000000      1.00000000      1.00000000      1.00000000      1.00000000      1.00000000      1.00000000      1.00000000
      1.00000000      1.00000000      1.00000000      1.00000000      1.00000000      1.00000000      1.00000000      1.00000000      1.00000000      1.00000000      1.00000000      1.00000000      1.00000000      1.00000000      1.00000000      1.00000000      1.00000000      1.00000000      1.00000000      1.00000000
      1.00000000      1.00000000      1.00000000      1.00000000      1.00000000      1.00000000      1.00000000      1.00000000      1.00000000      1.00000000      1.00000000      1.00000000      1.00000000      1.00000000      1.00000000      1.00000000      1.00000000      1.00000000      1.00000000      1.00000000
      1.00000000      1.00000000      1.00000000      1.00000000      1.00000000      1.00000000      1.00000000      1.00000000      1.00000000      1.00000000      1.00000000      1.00000000      1.00000000      1.00000000      1.00000000      1.00000000      1.00000000      1.00000000      1.00000000      1.00000000
      1.00000000      1.00000000      1.00000000      1.00000000      1.00000000      1.00000000      1.00000000      1.00000000      1.00000000      1.00000000      1.00000000      1.00000000      1.00000000      1.00000000      1.00000000      1.00000000      1.00000000      1.00000000      1.00000000      1.00000000
      1.00000000      1.00000000      1.00000000      1.00000000      1.00000000      1.00000000      1.00000000      1.00000000      1.00000000      1.00000000      1.00000000      1.00000000      1.00000000      1.00000000      1.00000000      1.00000000      1.00000000      1.00000000      1.00000000      1.00000000
      1.00000000      1.00000000      1.00000000      1.00000000      1.00000000      1.00000000      1.00000000      1.00000000      1.00000000      1.00000000      1.00000000      1.00000000</v>
    <i name="NUPDOWN">     -1.00000000</i>
    <i type="logical" name="LSORBIT"> F  </i>
    <v name="SAXIS">      0.00000000      0.00000000      1.00000000</v>
    <i type="logical" name="LSPIRAL"> F  </i>
    <v name="QSPIRAL">      0.00000000      0.00000000      0.00000000</v>
    <i type="logical" name="LZEROZ"> F  </i>
   </separator>
   <separator name="electronic exchange-correlation" >
    <i type="logical" name="LASPH"> F  </i>
    <i type="logical" name="LMETAGGA"> F  </i>
   </separator>
   <separator name="electronic convergence" >
    <i type="int" name="NELM">   200</i>
    <i type="int" name="NELMDL">     0</i>
    <i type="int" name="NELMIN">     2</i>
    <i name="ENINI">    500.00000000</i>
    <separator name="electronic convergence detail" >
     <i type="logical" name="LDIAG"> T  </i>
     <i type="logical" name="LSUBROT"> F  </i>
     <i name="WEIMIN">      0.00000000</i>
     <i name="EBREAK">      0.00000000</i>
     <i name="DEPER">      0.30000000</i>
     <i type="int" name="NRMM">     4</i>
     <i name="TIME">      0.40000000</i>
    </separator>
   </separator>
   <separator name="electronic mixer" >
    <i name="AMIX">      0.40000000</i>
    <i name="BMIX">      1.00000000</i>
    <i name="AMIN">      0.10000000</i>
    <i name="AMIX_MAG">      1.60000000</i>
    <i name="BMIX_MAG">      1.00000000</i>
    <separator name="electronic mixer details" >
     <i type="int" name="IMIX">     4</i>
     <i type="logical" name="MIXFIRST"> F  </i>
     <i type="int" name="MAXMIX">   -45</i>
     <i name="WC">    100.00000000</i>
     <i type="int" name="INIMIX">     1</i>
     <i type="int" name="MIXPRE">     1</i>
     <i type="int" name="MREMOVE">     5</i>
    </separator>
   </separator>
   <separator name="electronic dipolcorrection" >
    <i type="logical" name="LDIPOL"> F  </i>
    <i type="logical" name="LMONO"> F  </i>
    <i type="int" name="IDIPOL">     0</i>
    <i name="EPSILON">      1.00000000</i>
    <v name="DIPOL">   -100.00000000   -100.00000000   -100.00000000</v>
    <i name="EFIELD">      0.00000000</i>
   </separator>
  </separator>
  <separator name="grids" >
   <i type="int" name="NGX">   280</i>
   <i type="int" name="NGY">   280</i>
   <i type="int" name="NGZ">   150</i>
   <i type="int" name="NGXF">   432</i>
   <i type="int" name="NGYF">   432</i>
   <i type="int" name="NGZF">   224</i>
   <i type="logical" name="ADDGRID"> F  </i>
  </separator>
  <separator name="ionic" >
   <i type="int" name="NSW">     0</i>
   <i type="int" name="IBRION">    -1</i>
   <i type="int" name="MDALGO">     0</i>
   <i type="int" name="ISIF">     2</i>
   <i name="PSTRESS">      0.00000000</i>
   <i name="EDIFFG">     -0.01000000</i>
   <i type="int" name="NFREE">     0</i>
   <i name="POTIM">      0.30000000</i>
   <i name="SMASS">     -3.00000000</i>
   <i name="SCALEE">      1.00000000</i>
  </separator>
  <separator name="ionic md" >
   <i name="TEBEG">      0.00010000</i>
   <i name="TEEND">      0.00010000</i>
   <i type="int" name="NBLOCK">     1</i>
   <i type="int" name="KBLOCK">     1</i>
   <i type="int" name="NPACO">   256</i>
   <i name="APACO">     16.00000000</i>
  </separator>
  <separator name="symmetry" >
   <i type="int" name="ISYM">     2</i>
   <i name="SYMPREC">      0.00001000</i>
  </separator>
  <separator name="dos" >
   <i type="int" name="LORBIT">     0</i>
   <v name="RWIGS">     -1.00000000     -1.00000000     -1.00000000</v>
   <i type="int" name="NEDOS">   301</i>
   <i name="EMIN">     10.00000000</i>
   <i name="EMAX">    -10.00000000</i>
   <i name="EFERMI">      0.00000000</i>
  </separator>
  <separator name="writing" >
   <i type="int" name="NWRITE">     0</i>
   <i type="logical" name="LWAVE"> F  </i>
   <i type="logical" name="LDOWNSAMPLE"> F  </i>
   <i type="logical" name="LCHARG"> F  </i>
   <i type="logical" name="LPARD"> F  </i>
   <i type="logical" name="LVTOT"> F  </i>
   <i type="logical" name="LVHAR"> F  </i>
   <i type="logical" name="LELF"> F  </i>
   <i type="logical" name="LOPTICS"> F  </i>
   <v name="STM">      0.00000000      0.00000000      0.00000000      0.00000000      0.00000000      0.00000000      0.00000000</v>
  </separator>
  <separator name="performance" >
   <i type="int" name="NPAR">    16</i>
   <i type="int" name="NSIM">     4</i>
   <i type="int" name="NBLK">    -1</i>
   <i type="logical" name="LPLANE"> T  </i>
   <i type="logical" name="LSCALAPACK"> T  </i>
   <i type="logical" name="LSCAAWARE"> F  </i>
   <i type="logical" name="LSCALU"> F  </i>
   <i type="logical" name="LASYNC"> F  </i>
   <i type="logical" name="LORBITALREAL"> F  </i>
  </separator>
  <separator name="miscellaneous" >
   <i type="int" name="IDIOT">     3</i>
   <i type="int" name="ISPECIAL">     0</i>
   <i type="logical" name="LMUSIC"> F  </i>
   <v name="POMASS">      1.00000000     12.01100000     14.00100000</v>
   <v name="DARWINR">      0.00000000      0.00000000      0.00000000</v>
   <v name="DARWINV">      1.00000000      1.00000000      1.00000000</v>
   <i type="logical" name="LCORR"> T  </i>
  </separator>
  <i type="logical" name="GGA_COMPAT"> T  </i>
  <i type="logical" name="LBERRY"> F  </i>
  <i type="int" name="ICORELEVEL">     0</i>
  <i type="logical" name="LDAU"> F  </i>
  <i type="int" name="I_CONSTRAINED_M">     0</i>
  <separator name="electronic exchange-correlation" >
   <i type="string" name="GGA">PE</i>
   <i type="int" name="VOSKOWN">     0</i>
   <i type="logical" name="LHFCALC"> F  </i>
   <i type="string" name="PRECFOCK"></i>
   <i type="logical" name="LSYMGRAD"> F  </i>
   <i type="logical" name="LHFONE"> F  </i>
   <i type="logical" name="LRHFCALC"> F  </i>
   <i type="logical" name="LTHOMAS"> F  </i>
   <i type="logical" name="LMODELHF"> F  </i>
   <i name="ENCUT4O">     -1.00000000</i>
   <i type="int" name="EXXOEP">     0</i>
   <i type="int" name="FOURORBIT">     0</i>
   <i name="AEXX">      0.00000000</i>
   <i name="HFALPHA">      0.00000000</i>
   <i name="MCALPHA">      0.00000000</i>
   <i name="ALDAX">      1.00000000</i>
   <i name="AGGAX">      1.00000000</i>
   <i name="ALDAC">      1.00000000</i>
   <i name="AGGAC">      1.00000000</i>
   <i type="int" name="NKREDX">     1</i>
   <i type="int" name="NKREDY">     1</i>
   <i type="int" name="NKREDZ">     1</i>
   <i type="logical" name="SHIFTRED"> F  </i>
   <i type="logical" name="ODDONLY"> F  </i>
   <i type="logical" name="EVENONLY"> F  </i>
   <i type="int" name="LMAXFOCK">     0</i>
   <i type="int" name="NMAXFOCKAE">     0</i>
   <i type="logical" name="LFOCKAEDFT"> F  </i>
   <i name="HFSCREEN">      0.00000000</i>
   <i name="HFSCREENC">      0.00000000</i>
   <i type="int" name="NBANDSGWLOW">     0</i>
  </separator>
  <separator name="vdW DFT" >
   <i type="logical" name="LUSE_VDW"> F  </i>
   <i name="Zab_VDW">     -0.84910000</i>
   <i name="PARAM1">      0.12340000</i>
   <i name="PARAM2">      1.00000000</i>
   <i name="PARAM3">      0.00000000</i>
  </separator>
  <separator name="model GW" >
   <i type="int" name="MODEL_GW">     0</i>
   <i name="MODEL_EPS0">     60.47829180</i>
   <i name="MODEL_ALPHA">      1.00000000</i>
  </separator>
  <separator name="linear response parameters" >
   <i type="logical" name="LEPSILON"> F  </i>
   <i type="logical" name="LRPA"> F  </i>
   <i type="logical" name="LNABLA"> F  </i>
   <i type="logical" name="LVEL"> F  </i>
   <i type="int" name="KINTER">     0</i>
   <i name="CSHIFT">      0.10000000</i>
   <i name="OMEGAMAX">     -1.00000000</i>
   <i name="DEG_THRESHOLD">      0.00200000</i>
   <i name="RTIME">     -0.10000000</i>
   <i name="WPLASMAI">      0.00000000</i>
   <v name="DFIELD">      0.00000000      0.00000000      0.00000000</v>
   <v name="WPLASMA">      0.00000000      0.00000000      0.00000000      0.00000000      0.00000000      0.00000000      0.00000000      0.00000000      0.00000000</v>
  </separator>
  <separator name="orbital magnetization" >
   <i type="logical" name="NUCIND"> F  </i>
   <v name="MAGPOS">      0.00000000      0.00000000      0.00000000</v>
   <i type="logical" name="LNICSALL"> T  </i>
   <i type="logical" name="ORBITALMAG"> F  </i>
   <i type="logical" name="LMAGBLOCH"> F  </i>
   <i type="logical" name="LCHIMAG"> F  </i>
   <i type="logical" name="LGAUGE"> T  </i>
   <i type="int" name="MAGATOM">     0</i>
   <v name="MAGDIPOL">      0.00000000      0.00000000      0.00000000</v>
   <v name="AVECCONST">      0.00000000      0.00000000      0.00000000</v>
  </separator>
  <separator name="response functions" >
   <i type="logical" name="LADDER"> F  </i>
   <i type="logical" name="LRPAFORCE"> F  </i>
   <i type="logical" name="LFXC"> F  </i>
   <i type="logical" name="LHARTREE"> T  </i>
   <i type="int" name="IBSE">     0</i>
   <v type="int" name="KPOINT">    -1     0     0     0</v>
   <i type="logical" name="LTCTE"> F  </i>
   <i type="logical" name="LTETE"> F  </i>
   <i type="logical" name="LTRIPLET"> F  </i>
   <i type="logical" name="LFXCEPS"> F  </i>
   <i type="logical" name="LFXHEG"> F  </i>
   <i type="int" name="NATURALO">     2</i>
   <i type="logical" name="L2ORDER"> F  </i>
   <i type="logical" name="LMP2LT"> F  </i>
   <i type="logical" name="LUSEW"> F  </i>
   <i name="ENCUTGW">     -2.00000000</i>
   <i name="ENCUTGWSOFT">     -2.00000000</i>
   <i name="ENCUTLF">     -1.00000000</i>
   <i type="int" name="LMAXMP2">    -1</i>
   <i name="SCISSOR">      0.00000000</i>
   <i type="int" name="NOMEGA">     0</i>
   <i type="int" name="NOMEGAR">     0</i>
   <i type="int" name="NBANDSGW">    -1</i>
   <i type="int" name="NBANDSO">    -1</i>
   <i type="int" name="NBANDSV">    -1</i>
   <i type="int" name="NELM">   200</i>
   <i type="int" name="NELMHF">     1</i>
   <i type="int" name="DIM">     3</i>
   <i type="int" name="ANTIRES">     0</i>
   <i name="OMEGAMAX">    -30.00000000</i>
   <i name="OMEGAMIN">    -30.00000000</i>
   <i name="OMEGATL">   -200.00000000</i>
   <i type="int" name="OMEGAGRID">   140</i>
   <i name="CSHIFT">     -0.10000000</i>
   <i type="logical" name="SELFENERGY"> F  </i>
   <i type="logical" name="LSPECTRAL"> F  </i>
   <i type="logical" name="LSPECTRALGW"> F  </i>
   <i type="logical" name="LSINGLES"> F  </i>
   <i type="logical" name="LFERMIGW"> F  </i>
   <i type="logical" name="ODDONLYGW"> F  </i>
   <i type="logical" name="EVENONLYGW"> F  </i>
   <i type="int" name="NKREDLFX">     1</i>
   <i type="int" name="NKREDLFY">     1</i>
   <i type="int" name="NKREDLFZ">     1</i>
   <i type="int" name="MAXMEM">  2800</i>
   <i type="int" name="TELESCOPE">     0</i>
   <i type="int" name="TAUPAR">     1</i>
   <i type="int" name="OMEGAPAR">    -1</i>
   <i name="LAMBDA">      1.00000000</i>
  </separator>
  <separator name="External order field" >
   <i name="OFIELD_KAPPA">      0.00000000</i>
   <v name="OFIELD_K">      0.00000000      0.00000000      0.00000000</v>
   <i name="OFIELD_Q6_NEAR">      0.00000000</i>
   <i name="OFIELD_Q6_FAR">      0.00000000</i>
   <i name="OFIELD_A">      0.00000000</i>
  </separator>
  <separator name="solvation model" >
   <i type="logical" name="LSOL"> F  </i>
  </separator>
 </parameters>
 <atominfo>
  <atoms>     252 </atoms>
  <types>       3 </types>
  <array name="atoms" >
   <dimension dim="1">ion</dimension>
   <field type="string">element</field>
   <field type="int">atomtype</field>
   <set>
    <rc><c>H </c><c>   1</c></rc>
    <rc><c>H </c><c>   1</c></rc>
    <rc><c>H </c><c>   1</c></rc>
    <rc><c>H </c><c>   1</c></rc>
    <rc><c>H </c><c>   1</c></rc>
    <rc><c>H </c><c>   1</c></rc>
    <rc><c>H </c><c>   1</c></rc>
    <rc><c>H </c><c>   1</c></rc>
    <rc><c>H </c><c>   1</c></rc>
    <rc><c>H </c><c>   1</c></rc>
    <rc><c>H </c><c>   1</c></rc>
    <rc><c>H </c><c>   1</c></rc>
    <rc><c>H </c><c>   1</c></rc>
    <rc><c>H </c><c>   1</c></rc>
    <rc><c>H </c><c>   1</c></rc>
    <rc><c>H </c><c>   1</c></rc>
    <rc><c>H </c><c>   1</c></rc>
    <rc><c>H </c><c>   1</c></rc>
    <rc><c>H </c><c>   1</c></rc>
    <rc><c>H </c><c>   1</c></rc>
    <rc><c>H </c><c>   1</c></rc>
    <rc><c>H </c><c>   1</c></rc>
    <rc><c>H </c><c>   1</c></rc>
    <rc><c>H </c><c>   1</c></rc>
    <rc><c>H </c><c>   1</c></rc>
    <rc><c>H </c><c>   1</c></rc>
    <rc><c>H </c><c>   1</c></rc>
    <rc><c>H </c><c>   1</c></rc>
    <rc><c>H </c><c>   1</c></rc>
    <rc><c>H </c><c>   1</c></rc>
    <rc><c>H </c><c>   1</c></rc>
    <rc><c>H </c><c>   1</c></rc>
    <rc><c>H </c><c>   1</c></rc>
    <rc><c>H </c><c>   1</c></rc>
    <rc><c>H </c><c>   1</c></rc>
    <rc><c>H </c><c>   1</c></rc>
    <rc><c>H </c><c>   1</c></rc>
    <rc><c>H </c><c>   1</c></rc>
    <rc><c>H </c><c>   1</c></rc>
    <rc><c>H </c><c>   1</c></rc>
    <rc><c>H </c><c>   1</c></rc>
    <rc><c>H </c><c>   1</c></rc>
    <rc><c>H </c><c>   1</c></rc>
    <rc><c>H </c><c>   1</c></rc>
    <rc><c>H </c><c>   1</c></rc>
    <rc><c>H </c><c>   1</c></rc>
    <rc><c>H </c><c>   1</c></rc>
    <rc><c>H </c><c>   1</c></rc>
    <rc><c>H </c><c>   1</c></rc>
    <rc><c>H </c><c>   1</c></rc>
    <rc><c>H </c><c>   1</c></rc>
    <rc><c>H </c><c>   1</c></rc>
    <rc><c>H </c><c>   1</c></rc>
    <rc><c>H </c><c>   1</c></rc>
    <rc><c>C </c><c>   2</c></rc>
    <rc><c>C </c><c>   2</c></rc>
    <rc><c>C </c><c>   2</c></rc>
    <rc><c>C </c><c>   2</c></rc>
    <rc><c>C </c><c>   2</c></rc>
    <rc><c>C </c><c>   2</c></rc>
    <rc><c>C </c><c>   2</c></rc>
    <rc><c>C </c><c>   2</c></rc>
    <rc><c>C </c><c>   2</c></rc>
    <rc><c>C </c><c>   2</c></rc>
    <rc><c>C </c><c>   2</c></rc>
    <rc><c>C </c><c>   2</c></rc>
    <rc><c>C </c><c>   2</c></rc>
    <rc><c>C </c><c>   2</c></rc>
    <rc><c>C </c><c>   2</c></rc>
    <rc><c>C </c><c>   2</c></rc>
    <rc><c>C </c><c>   2</c></rc>
    <rc><c>C </c><c>   2</c></rc>
    <rc><c>C </c><c>   2</c></rc>
    <rc><c>C </c><c>   2</c></rc>
    <rc><c>C </c><c>   2</c></rc>
    <rc><c>C </c><c>   2</c></rc>
    <rc><c>C </c><c>   2</c></rc>
    <rc><c>C </c><c>   2</c></rc>
    <rc><c>C </c><c>   2</c></rc>
    <rc><c>C </c><c>   2</c></rc>
    <rc><c>C </c><c>   2</c></rc>
    <rc><c>C </c><c>   2</c></rc>
    <rc><c>C </c><c>   2</c></rc>
    <rc><c>C </c><c>   2</c></rc>
    <rc><c>C </c><c>   2</c></rc>
    <rc><c>C </c><c>   2</c></rc>
    <rc><c>C </c><c>   2</c></rc>
    <rc><c>C </c><c>   2</c></rc>
    <rc><c>C </c><c>   2</c></rc>
    <rc><c>C </c><c>   2</c></rc>
    <rc><c>C </c><c>   2</c></rc>
    <rc><c>C </c><c>   2</c></rc>
    <rc><c>C </c><c>   2</c></rc>
    <rc><c>C </c><c>   2</c></rc>
    <rc><c>C </c><c>   2</c></rc>
    <rc><c>C </c><c>   2</c></rc>
    <rc><c>C </c><c>   2</c></rc>
    <rc><c>C </c><c>   2</c></rc>
    <rc><c>C </c><c>   2</c></rc>
    <rc><c>C </c><c>   2</c></rc>
    <rc><c>C </c><c>   2</c></rc>
    <rc><c>C </c><c>   2</c></rc>
    <rc><c>C </c><c>   2</c></rc>
    <rc><c>C </c><c>   2</c></rc>
    <rc><c>C </c><c>   2</c></rc>
    <rc><c>C </c><c>   2</c></rc>
    <rc><c>C </c><c>   2</c></rc>
    <rc><c>C </c><c>   2</c></rc>
    <rc><c>C </c><c>   2</c></rc>
    <rc><c>C </c><c>   2</c></rc>
    <rc><c>C </c><c>   2</c></rc>
    <rc><c>C </c><c>   2</c></rc>
    <rc><c>C </c><c>   2</c></rc>
    <rc><c>C </c><c>   2</c></rc>
    <rc><c>C </c><c>   2</c></rc>
    <rc><c>C </c><c>   2</c></rc>
    <rc><c>C </c><c>   2</c></rc>
    <rc><c>C </c><c>   2</c></rc>
    <rc><c>C </c><c>   2</c></rc>
    <rc><c>C </c><c>   2</c></rc>
    <rc><c>C </c><c>   2</c></rc>
    <rc><c>C </c><c>   2</c></rc>
    <rc><c>C </c><c>   2</c></rc>
    <rc><c>C </c><c>   2</c></rc>
    <rc><c>C </c><c>   2</c></rc>
    <rc><c>C </c><c>   2</c></rc>
    <rc><c>C </c><c>   2</c></rc>
    <rc><c>C </c><c>   2</c></rc>
    <rc><c>C </c><c>   2</c></rc>
    <rc><c>C </c><c>   2</c></rc>
    <rc><c>C </c><c>   2</c></rc>
    <rc><c>C </c><c>   2</c></rc>
    <rc><c>C </c><c>   2</c></rc>
    <rc><c>C </c><c>   2</c></rc>
    <rc><c>C </c><c>   2</c></rc>
    <rc><c>C </c><c>   2</c></rc>
    <rc><c>C </c><c>   2</c></rc>
    <rc><c>C </c><c>   2</c></rc>
    <rc><c>C </c><c>   2</c></rc>
    <rc><c>C </c><c>   2</c></rc>
    <rc><c>C </c><c>   2</c></rc>
    <rc><c>C </c><c>   2</c></rc>
    <rc><c>C </c><c>   2</c></rc>
    <rc><c>C </c><c>   2</c></rc>
    <rc><c>C </c><c>   2</c></rc>
    <rc><c>C </c><c>   2</c></rc>
    <rc><c>C </c><c>   2</c></rc>
    <rc><c>C </c><c>   2</c></rc>
    <rc><c>C </c><c>   2</c></rc>
    <rc><c>C </c><c>   2</c></rc>
    <rc><c>C </c><c>   2</c></rc>
    <rc><c>C </c><c>   2</c></rc>
    <rc><c>C </c><c>   2</c></rc>
    <rc><c>C </c><c>   2</c></rc>
    <rc><c>C </c><c>   2</c></rc>
    <rc><c>C </c><c>   2</c></rc>
    <rc><c>C </c><c>   2</c></rc>
    <rc><c>C </c><c>   2</c></rc>
    <rc><c>C </c><c>   2</c></rc>
    <rc><c>C </c><c>   2</c></rc>
    <rc><c>C </c><c>   2</c></rc>
    <rc><c>C </c><c>   2</c></rc>
    <rc><c>N </c><c>   3</c></rc>
    <rc><c>N </c><c>   3</c></rc>
    <rc><c>N </c><c>   3</c></rc>
    <rc><c>N </c><c>   3</c></rc>
    <rc><c>N </c><c>   3</c></rc>
    <rc><c>N </c><c>   3</c></rc>
    <rc><c>N </c><c>   3</c></rc>
    <rc><c>N </c><c>   3</c></rc>
    <rc><c>N </c><c>   3</c></rc>
    <rc><c>N </c><c>   3</c></rc>
    <rc><c>N </c><c>   3</c></rc>
    <rc><c>N </c><c>   3</c></rc>
    <rc><c>N </c><c>   3</c></rc>
    <rc><c>N </c><c>   3</c></rc>
    <rc><c>N </c><c>   3</c></rc>
    <rc><c>N </c><c>   3</c></rc>
    <rc><c>N </c><c>   3</c></rc>
    <rc><c>N </c><c>   3</c></rc>
    <rc><c>N </c><c>   3</c></rc>
    <rc><c>N </c><c>   3</c></rc>
    <rc><c>N </c><c>   3</c></rc>
    <rc><c>N </c><c>   3</c></rc>
    <rc><c>N </c><c>   3</c></rc>
    <rc><c>N </c><c>   3</c></rc>
    <rc><c>N </c><c>   3</c></rc>
    <rc><c>N </c><c>   3</c></rc>
    <rc><c>N </c><c>   3</c></rc>
    <rc><c>N </c><c>   3</c></rc>
    <rc><c>N </c><c>   3</c></rc>
    <rc><c>N </c><c>   3</c></rc>
    <rc><c>N </c><c>   3</c></rc>
    <rc><c>N </c><c>   3</c></rc>
    <rc><c>N </c><c>   3</c></rc>
    <rc><c>N </c><c>   3</c></rc>
    <rc><c>N </c><c>   3</c></rc>
    <rc><c>N </c><c>   3</c></rc>
    <rc><c>N </c><c>   3</c></rc>
    <rc><c>N </c><c>   3</c></rc>
    <rc><c>N </c><c>   3</c></rc>
    <rc><c>N </c><c>   3</c></rc>
    <rc><c>N </c><c>   3</c></rc>
    <rc><c>N </c><c>   3</c></rc>
    <rc><c>N </c><c>   3</c></rc>
    <rc><c>N </c><c>   3</c></rc>
    <rc><c>N </c><c>   3</c></rc>
    <rc><c>N </c><c>   3</c></rc>
    <rc><c>N </c><c>   3</c></rc>
    <rc><c>N </c><c>   3</c></rc>
    <rc><c>N </c><c>   3</c></rc>
    <rc><c>N </c><c>   3</c></rc>
    <rc><c>N </c><c>   3</c></rc>
    <rc><c>N </c><c>   3</c></rc>
    <rc><c>N </c><c>   3</c></rc>
    <rc><c>N </c><c>   3</c></rc>
    <rc><c>N </c><c>   3</c></rc>
    <rc><c>N </c><c>   3</c></rc>
    <rc><c>N </c><c>   3</c></rc>
    <rc><c>N </c><c>   3</c></rc>
    <rc><c>N </c><c>   3</c></rc>
    <rc><c>N </c><c>   3</c></rc>
    <rc><c>N </c><c>   3</c></rc>
    <rc><c>N </c><c>   3</c></rc>
    <rc><c>N </c><c>   3</c></rc>
    <rc><c>N </c><c>   3</c></rc>
    <rc><c>N </c><c>   3</c></rc>
    <rc><c>N </c><c>   3</c></rc>
    <rc><c>N </c><c>   3</c></rc>
    <rc><c>N </c><c>   3</c></rc>
    <rc><c>N </c><c>   3</c></rc>
    <rc><c>N </c><c>   3</c></rc>
    <rc><c>N </c><c>   3</c></rc>
    <rc><c>N </c><c>   3</c></rc>
    <rc><c>N </c><c>   3</c></rc>
    <rc><c>N </c><c>   3</c></rc>
    <rc><c>N </c><c>   3</c></rc>
    <rc><c>N </c><c>   3</c></rc>
    <rc><c>N </c><c>   3</c></rc>
    <rc><c>N </c><c>   3</c></rc>
    <rc><c>N </c><c>   3</c></rc>
    <rc><c>N </c><c>   3</c></rc>
    <rc><c>N </c><c>   3</c></rc>
    <rc><c>N </c><c>   3</c></rc>
    <rc><c>N </c><c>   3</c></rc>
    <rc><c>N </c><c>   3</c></rc>
    <rc><c>N </c><c>   3</c></rc>
    <rc><c>N </c><c>   3</c></rc>
    <rc><c>N </c><c>   3</c></rc>
    <rc><c>N </c><c>   3</c></rc>
    <rc><c>N </c><c>   3</c></rc>
    <rc><c>N </c><c>   3</c></rc>
   </set>
  </array>
  <array name="atomtypes" >
   <dimension dim="1">type</dimension>
   <field type="int">atomspertype</field>
   <field type="string">element</field>
   <field>mass</field>
   <field>valence</field>
   <field type="string">pseudopotential</field>
   <set>
    <rc><c>  54</c><c>H </c><c>      1.00000000</c><c>      1.00000000</c><c>  PAW_PBE H 15Jun2001                   </c></rc>
    <rc><c> 108</c><c>C </c><c>     12.01100000</c><c>      4.00000000</c><c>  PAW_PBE C 08Apr2002                   </c></rc>
    <rc><c>  90</c><c>N </c><c>     14.00100000</c><c>      5.00000000</c><c>  PAW_PBE N 08Apr2002                   </c></rc>
   </set>
  </array>
 </atominfo>
 <structure name="initialpos" >
  <crystal>
   <varray name="basis" >
    <v>      38.30019290      -0.01434885       0.00000000 </v>
    <v>     -19.16252141      33.16743316       0.00000000 </v>
    <v>       0.00000000       0.00000000      20.00000000 </v>
   </varray>
   <i name="volume">  25400.88255675 </i>
   <varray name="rec_basis" >
    <v>       0.02611518       0.01508808       0.00000000 </v>
    <v>       0.00001130       0.03015658       0.00000000 </v>
    <v>       0.00000000       0.00000000       0.05000000 </v>
   </varray>
  </crystal>
  <varray name="positions" >
   <v>       0.65192234       0.23886525       0.51308343 </v>
   <v>       0.67880019       0.21271890       0.50138827 </v>
   <v>       0.57726033       0.20286256       0.51467283 </v>
   <v>       0.60643560       0.37359761       0.51444994 </v>
   <v>       0.55335457       0.34665454       0.50326867 </v>
   <v>       0.64518219       0.44821471       0.51509507 </v>
   <v>       0.78694908       0.41872089       0.51409832 </v>
   <v>       0.81302630       0.47173601       0.50194574 </v>
   <v>       0.82296141       0.38010796       0.51531235 </v>
   <v>       0.37844771       0.78218789       0.51536756 </v>
   <v>       0.35170113       0.80849047       0.50396315 </v>
   <v>       0.45322633       0.81801840       0.51573588 </v>
   <v>       0.42350820       0.64697555       0.51271290 </v>
   <v>       0.47662761       0.67390750       0.50178408 </v>
   <v>       0.38481908       0.57229206       0.51410722 </v>
   <v>       0.24316600       0.60218912       0.51434233 </v>
   <v>       0.21723211       0.54913368       0.50294812 </v>
   <v>       0.20707590       0.64062850       0.51446728 </v>
   <v>       0.35735436       0.15966278       0.49942849 </v>
   <v>       0.38434676       0.13331773       0.49683323 </v>
   <v>       0.39279755       0.23376742       0.49298442 </v>
   <v>       0.82215093       0.66792861       0.49559287 </v>
   <v>       0.76876517       0.64085401       0.49453967 </v>
   <v>       0.86076238       0.63230351       0.48981438 </v>
   <v>       0.86580641       0.20345339       0.49955302 </v>
   <v>       0.89217488       0.25684757       0.49799638 </v>
   <v>       0.79154504       0.16478779       0.49229094 </v>
   <v>       0.67295953       0.86106720       0.49825025 </v>
   <v>       0.64593037       0.88738594       0.49612696 </v>
   <v>       0.63734659       0.78681720       0.49237097 </v>
   <v>       0.20774139       0.35280565       0.49900844 </v>
   <v>       0.26109608       0.37956555       0.49692293 </v>
   <v>       0.16939967       0.38844175       0.49261270 </v>
   <v>       0.16481317       0.81747157       0.49796847 </v>
   <v>       0.13838088       0.76404285       0.49663941 </v>
   <v>       0.23902852       0.85602678       0.49176023 </v>
   <v>       0.34204359       0.03925065       0.38554751 </v>
   <v>       0.37887071       0.08354378       0.42115112 </v>
   <v>       0.32733739       0.97231737       0.42861746 </v>
   <v>       0.71680729       0.68306516       0.38361075 </v>
   <v>       0.72404450       0.64604378       0.41881519 </v>
   <v>       0.66502882       0.69824824       0.42760391 </v>
   <v>       0.98546537       0.30797131       0.38616844 </v>
   <v>       0.94140246       0.30077103       0.42230280 </v>
   <v>       0.05272749       0.36000668       0.42870034 </v>
   <v>       0.68809179       0.98112698       0.38458493 </v>
   <v>       0.65130829       0.93696386       0.42061506 </v>
   <v>       0.70273973       0.04819474       0.42676258 </v>
   <v>       0.31207345       0.33723001       0.38614056 </v>
   <v>       0.30518243       0.37433833       0.42209454 </v>
   <v>       0.36434780       0.32217640       0.42844251 </v>
   <v>       0.04425800       0.71241348       0.38442923 </v>
   <v>       0.08846903       0.71980809       0.42005760 </v>
   <v>       0.97718312       0.66031895       0.42771611 </v>
   <v>       0.43642010       0.09288654       0.50643040 </v>
   <v>       0.46240077       0.16058963       0.49118901 </v>
   <v>       0.50385901       0.13442071       0.50044698 </v>
   <v>       0.67616975       0.58888183       0.50515522 </v>
   <v>       0.71785379       0.56278528       0.49139278 </v>
   <v>       0.65014164       0.52145088       0.49989197 </v>
   <v>       0.93277010       0.34925992       0.50777933 </v>
   <v>       0.86503994       0.30763479       0.49247507 </v>
   <v>       0.89142770       0.37530249       0.50158684 </v>
   <v>       0.59402365       0.92792708       0.50642663 </v>
   <v>       0.56791484       0.86017975       0.49135994 </v>
   <v>       0.52657618       0.88643619       0.50121017 </v>
   <v>       0.35383403       0.43162444       0.50698732 </v>
   <v>       0.31230409       0.45775506       0.49120057 </v>
   <v>       0.37999722       0.49903484       0.50073960 </v>
   <v>       0.09757697       0.67155952       0.50578640 </v>
   <v>       0.16544028       0.71316130       0.49206224 </v>
   <v>       0.13878375       0.64536167       0.49971418 </v>
   <v>       0.09758376       0.43126595       0.50173910 </v>
   <v>       0.16475877       0.45728790       0.49248194 </v>
   <v>       0.13824119       0.49894810       0.49460239 </v>
   <v>       0.59432149       0.67192167       0.50192135 </v>
   <v>       0.56842176       0.71314798       0.49207772 </v>
   <v>       0.52662993       0.64495197       0.49543269 </v>
   <v>       0.35392086       0.92796658       0.50250562 </v>
   <v>       0.31264102       0.86079773       0.49298819 </v>
   <v>       0.38084208       0.88725475       0.49618259 </v>
   <v>       0.93268859       0.58943663       0.50180762 </v>
   <v>       0.86551311       0.56342663       0.49208968 </v>
   <v>       0.89204193       0.52175246       0.49450837 </v>
   <v>       0.43569372       0.34866164       0.50156893 </v>
   <v>       0.46164131       0.30748603       0.49182285 </v>
   <v>       0.50342484       0.37566533       0.49554255 </v>
   <v>       0.67658141       0.09289389       0.50072190 </v>
   <v>       0.71790868       0.16005793       0.49124410 </v>
   <v>       0.64969963       0.13366737       0.49408740 </v>
   <v>       0.54466341       0.13909726       0.49535932 </v>
   <v>       0.57934776       0.17593560       0.50476600 </v>
   <v>       0.61706250       0.17768303       0.50077343 </v>
   <v>       0.61449902       0.13936942       0.49117286 </v>
   <v>       0.61397012       0.48066685       0.49526381 </v>
   <v>       0.61612301       0.44605950       0.50529783 </v>
   <v>       0.58008414       0.40836193       0.50213378 </v>
   <v>       0.54432674       0.41089027       0.49242211 </v>
   <v>       0.88677487       0.41141617       0.49633723 </v>
   <v>       0.84988660       0.40916859       0.50547481 </v>
   <v>       0.84810030       0.44509759       0.50129752 </v>
   <v>       0.88640963       0.48088239       0.49150730 </v>
   <v>       0.48579261       0.88181591       0.49664110 </v>
   <v>       0.45113085       0.84497657       0.50619178 </v>
   <v>       0.41344761       0.84331836       0.50285385 </v>
   <v>       0.41605652       0.88163345       0.49318320 </v>
   <v>       0.41620549       0.53981431       0.49599698 </v>
   <v>       0.41393625       0.57444816       0.50490911 </v>
   <v>       0.44992518       0.61218359       0.50133952 </v>
   <v>       0.48575756       0.60968764       0.49242400 </v>
   <v>       0.14337349       0.60920890       0.49463926 </v>
   <v>       0.18022439       0.61152528       0.50455567 </v>
   <v>       0.18203901       0.57560511       0.50127681 </v>
   <v>       0.14381812       0.53977688       0.49126064 </v>
   <v>       0.45751897       0.26673808       0.48924103 </v>
   <v>       0.42025750       0.23184642       0.49060771 </v>
   <v>       0.41877970       0.19434151       0.48981788 </v>
   <v>       0.45712027       0.19633354       0.48813667 </v>
   <v>       0.82886506       0.56754801       0.49031194 </v>
   <v>       0.83130656       0.60483823       0.48942045 </v>
   <v>       0.79529633       0.60636960       0.48888629 </v>
   <v>       0.75889121       0.56803214       0.48916406 </v>
   <v>       0.75873797       0.19667260       0.48937288 </v>
   <v>       0.79358959       0.19423464       0.49053411 </v>
   <v>       0.83117258       0.23024105       0.49041061 </v>
   <v>       0.82924683       0.26662799       0.48931961 </v>
   <v>       0.57261361       0.75392826       0.48945449 </v>
   <v>       0.60991513       0.78880323       0.49031330 </v>
   <v>       0.61148119       0.82635689       0.48948543 </v>
   <v>       0.57315547       0.82440817       0.48828700 </v>
   <v>       0.20137685       0.45316412       0.49037579 </v>
   <v>       0.19886641       0.41585801       0.49086351 </v>
   <v>       0.23482358       0.41425976       0.49006279 </v>
   <v>       0.27128097       0.45255384       0.48875914 </v>
   <v>       0.27185359       0.82414648       0.49113203 </v>
   <v>       0.23700625       0.82658079       0.49084268 </v>
   <v>       0.19942634       0.79057510       0.49042894 </v>
   <v>       0.20133458       0.75417347       0.49007147 </v>
   <v>       0.36319117       0.97044389       0.51032704 </v>
   <v>       0.35042536       0.98954963       0.46599648 </v>
   <v>       0.37031359       0.03204535       0.46719891 </v>
   <v>       0.40304568       0.05065152       0.51261232 </v>
   <v>       0.62745070       0.66251943       0.50958408 </v>
   <v>       0.65916293       0.67511970       0.46490271 </v>
   <v>       0.68152448       0.65498794       0.46560667 </v>
   <v>       0.66738979       0.62229598       0.51105119 </v>
   <v>       0.05512287       0.39810394       0.51019390 </v>
   <v>       0.03572198       0.36608093       0.46619432 </v>
   <v>       0.99321614       0.34364821       0.46780913 </v>
   <v>       0.97495410       0.35801247       0.51343567 </v>
   <v>       0.66728279       0.05041003       0.50884201 </v>
   <v>       0.67982849       0.03112299       0.46448662 </v>
   <v>       0.65997953       0.98863058       0.46617944 </v>
   <v>       0.62742434       0.97019004       0.51194870 </v>
   <v>       0.40255012       0.35800825       0.50979055 </v>
   <v>       0.37049564       0.34534035       0.46581665 </v>
   <v>       0.34808695       0.36542688       0.46737440 </v>
   <v>       0.36255287       0.39818303       0.51276677 </v>
   <v>       0.97519149       0.62266964       0.50966738 </v>
   <v>       0.99437880       0.65448059       0.46517525 </v>
   <v>       0.03689156       0.67701807       0.46628858 </v>
   <v>       0.05539230       0.66285641       0.51177074 </v>
   <v>       0.42899811       0.12320561       0.49312116 </v>
   <v>       0.50027101       0.16725055       0.49290907 </v>
   <v>       0.47308249       0.09704816       0.51199976 </v>
   <v>       0.71395661       0.59620469       0.49265337 </v>
   <v>       0.68655537       0.52494536       0.49302970 </v>
   <v>       0.64356843       0.55228427       0.51062135 </v>
   <v>       0.90233539       0.31151765       0.49478075 </v>
   <v>       0.85854293       0.33893602       0.49370436 </v>
   <v>       0.92875698       0.38182904       0.51337279 </v>
   <v>       0.60133221       0.89754309       0.49305123 </v>
   <v>       0.53006619       0.85357703       0.49331386 </v>
   <v>       0.55741050       0.92379740       0.51263188 </v>
   <v>       0.31613785       0.42432141       0.49350902 </v>
   <v>       0.34368284       0.49554634       0.49213456 </v>
   <v>       0.38639252       0.46823015       0.51313117 </v>
   <v>       0.12815624       0.70937073       0.49367077 </v>
   <v>       0.17180287       0.68177540       0.49308632 </v>
   <v>       0.10139606       0.63883676       0.51066466 </v>
   <v>       0.12820372       0.42365008       0.49507711 </v>
   <v>       0.17128026       0.49504872       0.49248709 </v>
   <v>       0.10060040       0.46752565       0.50122228 </v>
   <v>       0.60198116       0.71016184       0.49467993 </v>
   <v>       0.53062958       0.68191436       0.49254488 </v>
   <v>       0.55801046       0.63871159       0.50226405 </v>
   <v>       0.31567437       0.89737615       0.49515799 </v>
   <v>       0.34385950       0.85426543       0.49332651 </v>
   <v>       0.38712594       0.92487538       0.50316020 </v>
   <v>       0.90205396       0.59703959       0.49505053 </v>
   <v>       0.85904363       0.52568052       0.49146763 </v>
   <v>       0.92964858       0.55315944       0.50184756 </v>
   <v>       0.42803733       0.31044948       0.49383610 </v>
   <v>       0.49943547       0.33870561       0.49293804 </v>
   <v>       0.47201590       0.38186814       0.50220778 </v>
   <v>       0.71486176       0.12348111       0.49371467 </v>
   <v>       0.68670023       0.16662629       0.49141332 </v>
   <v>       0.64339562       0.09601477       0.50086867 </v>
   <v>       0.49209082       0.23193637       0.48631119 </v>
   <v>       0.49304112       0.26662191       0.48668262 </v>
   <v>       0.75944830       0.53305082       0.49014693 </v>
   <v>       0.79314818       0.53202934       0.49081889 </v>
   <v>       0.79370973       0.26607620       0.48789957 </v>
   <v>       0.75895241       0.23236283       0.48781802 </v>
   <v>       0.53817502       0.78883427       0.48694665 </v>
   <v>       0.53711324       0.75409370       0.48736798 </v>
   <v>       0.27076494       0.48756161       0.48823534 </v>
   <v>       0.23710245       0.48865193       0.48906557 </v>
   <v>       0.23689887       0.75474756       0.49058284 </v>
   <v>       0.27166262       0.78844533       0.49115965 </v>
   <v>       0.65218678       0.21279330       0.50667049 </v>
   <v>       0.58001154       0.37328377       0.50898725 </v>
   <v>       0.81297950       0.44506135       0.50715892 </v>
   <v>       0.37827241       0.80834097       0.50946852 </v>
   <v>       0.44991073       0.64727927       0.50697238 </v>
   <v>       0.21713789       0.57572590       0.50831597 </v>
   <v>       0.40921967       0.02962559       0.56087293 </v>
   <v>       0.38947355       0.99012064       0.56116528 </v>
   <v>       0.64030775       0.61618709       0.55945220 </v>
   <v>       0.62077054       0.63612035       0.56025325 </v>
   <v>       0.99627003       0.38536852       0.56130786 </v>
   <v>       0.03577107       0.40502583       0.56116446 </v>
   <v>       0.62144963       0.99141883       0.56003917 </v>
   <v>       0.64123609       0.03091746       0.56005457 </v>
   <v>       0.38989828       0.40424626       0.56065434 </v>
   <v>       0.40948254       0.38436416       0.56067741 </v>
   <v>       0.03431983       0.63571129       0.56005933 </v>
   <v>       0.99481818       0.61605068       0.56054087 </v>
   <v>       0.38313132       0.15919384       0.49040415 </v>
   <v>       0.79581166       0.64201351       0.48771113 </v>
   <v>       0.86633192       0.22976477       0.49099412 </v>
   <v>       0.64713815       0.86151165       0.48959129 </v>
   <v>       0.23410811       0.37852463       0.49020906 </v>
   <v>       0.16431179       0.79111051       0.49010780 </v>
   <v>       0.57923469       0.10531638       0.47829387 </v>
   <v>       0.54471216       0.10448568       0.47903986 </v>
   <v>       0.54552938       0.44605855       0.47889033 </v>
   <v>       0.57928696       0.48056831       0.47900138 </v>
   <v>       0.92048438       0.47973367       0.47866314 </v>
   <v>       0.92137860       0.44607051       0.47993753 </v>
   <v>       0.45127702       0.91569004       0.48007328 </v>
   <v>       0.48578032       0.91647972       0.48064135 </v>
   <v>       0.48469763       0.57446794       0.48004934 </v>
   <v>       0.45100237       0.53989541       0.48059057 </v>
   <v>       0.10976243       0.54082116       0.47764100 </v>
   <v>       0.10882752       0.57446993       0.47818503 </v>
   <v>       0.35938074       0.05347515       0.42588139 </v>
   <v>       0.71364812       0.66564011       0.42381746 </v>
   <v>       0.97147014       0.31126511       0.42664157 </v>
   <v>       0.67079791       0.96705077       0.42502836 </v>
   <v>       0.31559643       0.35471437       0.42644746 </v>
   <v>       0.05843374       0.70934159       0.42485098 </v>
  </varray>
 </structure>
 <calculation>
  <scstep>
   <time name="dav"> 1685.76 1700.83</time>
   <time name="total"> 1686.17 1701.25</time>
   <energy>
    <i name="alphaZ">    158.04371045 </i>
    <i name="ewald"> 129934.26707307 </i>
    <i name="hartreedc">-163342.69922261 </i>
    <i name="XCdc">   3465.01152774 </i>
    <i name="pawpsdc">  92845.62180534 </i>
    <i name="pawaedc"> -93045.90630997 </i>
    <i name="eentropy">     -0.00000000 </i>
    <i name="bandstr"> -12275.46889477 </i>
    <i name="atom">  40374.43320554 </i>
    <i name="e_fr_energy">  -1886.69710522 </i>
    <i name="e_wo_entrp">  -1886.69710522 </i>
    <i name="e_0_energy">  -1886.69710522 </i>
   </energy>
  </scstep>
  <scstep>
   <time name="dav"> 1864.26 1880.73</time>
   <time name="total"> 1864.28 1880.75</time>
   <energy>
    <i name="e_fr_energy">  -1887.49822471 </i>
    <i name="e_wo_entrp">  -1887.49822471 </i>
    <i name="e_0_energy">  -1887.49822471 </i>
   </energy>
  </scstep>
  <scstep>
   <time name="dav"> 2171.32 2190.34</time>
   <time name="total"> 2171.34 2190.36</time>
   <energy>
    <i name="e_fr_energy">  -1887.52480973 </i>
    <i name="e_wo_entrp">  -1887.52480973 </i>
    <i name="e_0_energy">  -1887.52480973 </i>
   </energy>
  </scstep>
  <scstep>
   <time name="dav"> 1854.44 1870.93</time>
   <time name="total"> 1854.46 1870.95</time>
   <energy>
    <i name="e_fr_energy">  -1887.52512259 </i>
    <i name="e_wo_entrp">  -1887.52512259 </i>
    <i name="e_0_energy">  -1887.52512259 </i>
   </energy>
  </scstep>
  <scstep>
   <time name="dav"> 1741.80 1757.32</time>
   <time name="total"> 1741.83 1757.35</time>
   <energy>
    <i name="e_fr_energy">  -1887.52513758 </i>
    <i name="e_wo_entrp">  -1887.52513758 </i>
    <i name="e_0_energy">  -1887.52513758 </i>
   </energy>
  </scstep>
  <scstep>
   <time name="dav"> 1393.96 1407.07</time>
   <time name="total"> 1393.98 1407.09</time>
   <energy>
    <i name="alphaZ">    158.04371045 </i>
    <i name="ewald"> 129934.26707307 </i>
    <i name="hartreedc">-163342.69922261 </i>
    <i name="XCdc">   3465.01152774 </i>
    <i name="pawpsdc">  92845.62180534 </i>
    <i name="pawaedc"> -93045.90630997 </i>
    <i name="eentropy">     -0.00000000 </i>
    <i name="bandstr"> -12276.29692761 </i>
    <i name="atom">  40374.43320554 </i>
    <i name="e_fr_energy">  -1887.52513806 </i>
    <i name="e_wo_entrp">  -1887.52513806 </i>
    <i name="e_0_energy">  -1887.52513806 </i>
   </energy>
  </scstep>
  <structure>
   <crystal>
    <varray name="basis" >
     <v>      38.30019290      -0.01434885       0.00000000 </v>
     <v>     -19.16252141      33.16743316       0.00000000 </v>
     <v>       0.00000000       0.00000000      20.00000000 </v>
    </varray>
    <i name="volume">  25400.88255675 </i>
    <varray name="rec_basis" >
     <v>       0.02611518       0.01508808       0.00000000 </v>
     <v>       0.00001130       0.03015658       0.00000000 </v>
     <v>       0.00000000       0.00000000       0.05000000 </v>
    </varray>
   </crystal>
   <varray name="positions" >
    <v>       0.65192234       0.23886525       0.51308343 </v>
    <v>       0.67880019       0.21271890       0.50138827 </v>
    <v>       0.57726033       0.20286256       0.51467283 </v>
    <v>       0.60643560       0.37359761       0.51444994 </v>
    <v>       0.55335457       0.34665454       0.50326867 </v>
    <v>       0.64518219       0.44821471       0.51509507 </v>
    <v>       0.78694908       0.41872089       0.51409832 </v>
    <v>       0.81302630       0.47173601       0.50194574 </v>
    <v>       0.82296141       0.38010796       0.51531235 </v>
    <v>       0.37844771       0.78218789       0.51536756 </v>
    <v>       0.35170113       0.80849047       0.50396315 </v>
    <v>       0.45322633       0.81801840       0.51573588 </v>
    <v>       0.42350820       0.64697555       0.51271290 </v>
    <v>       0.47662761       0.67390750       0.50178408 </v>
    <v>       0.38481908       0.57229206       0.51410722 </v>
    <v>       0.24316600       0.60218912       0.51434233 </v>
    <v>       0.21723211       0.54913368       0.50294812 </v>
    <v>       0.20707590       0.64062850       0.51446728 </v>
    <v>       0.35735436       0.15966278       0.49942849 </v>
    <v>       0.38434676       0.13331773       0.49683323 </v>
    <v>       0.39279755       0.23376742       0.49298442 </v>
    <v>       0.82215093       0.66792861       0.49559287 </v>
    <v>       0.76876517       0.64085401       0.49453967 </v>
    <v>       0.86076238       0.63230351       0.48981438 </v>
    <v>       0.86580641       0.20345339       0.49955302 </v>
    <v>       0.89217488       0.25684757       0.49799638 </v>
    <v>       0.79154504       0.16478779       0.49229094 </v>
    <v>       0.67295953       0.86106720       0.49825025 </v>
    <v>       0.64593037       0.88738594       0.49612696 </v>
    <v>       0.63734659       0.78681720       0.49237097 </v>
    <v>       0.20774139       0.35280565       0.49900844 </v>
    <v>       0.26109608       0.37956555       0.49692293 </v>
    <v>       0.16939967       0.38844175       0.49261270 </v>
[...]
       <r>    -4.0358     0.0000   936.0000 </r>
       <r>    -3.9373     0.0000   936.0000 </r>
       <r>    -3.8389     0.0000   936.0000 </r>
       <r>    -3.7405     0.0000   936.0000 </r>
       <r>    -3.6421     0.0000   936.0000 </r>
       <r>    -3.5437     0.0000   936.0000 </r>
       <r>    -3.4453     0.0000   936.0000 </r>
       <r>    -3.3468     0.0000   936.0000 </r>
       <r>    -3.2484     0.0000   936.0000 </r>
       <r>    -3.1500     0.0011   936.0001 </r>
       <r>    -3.0516    84.9382   944.3595 </r>
       <r>    -2.9532     0.0000   948.0000 </r>
       <r>    -2.8548     0.0000   948.0000 </r>
       <r>    -2.7563    60.9651   954.0000 </r>
       <r>    -2.6579    51.8975   959.1076 </r>
       <r>    -2.5595     0.0000   960.0000 </r>
       <r>    -2.4611     2.1504   960.2116 </r>
       <r>    -2.3627    33.5203   966.0000 </r>
       <r>    -2.2643    13.2191   967.3010 </r>
       <r>    -2.1658    20.1364   970.0820 </r>
       <r>    -2.0674    33.9170   974.1715 </r>
       <r>    -1.9690    44.3637   980.0001 </r>
       <r>    -1.8706    40.6424   984.0000 </r>
       <r>    -1.7722     0.0000   984.0000 </r>
       <r>    -1.6738    32.0191   987.1512 </r>
       <r>    -1.5753    75.5964   995.4403 </r>
       <r>    -1.4769    24.9669   998.4572 </r>
       <r>    -1.3785    47.2964  1004.2885 </r>
       <r>    -1.2801    37.7147  1009.6788 </r>
       <r>    -1.1817    36.8308  1013.9920 </r>
       <r>    -1.0832    47.3233  1018.6575 </r>
       <r>    -0.9848    13.0030  1020.6468 </r>
       <r>    -0.8864    33.9319  1025.5066 </r>
       <r>    -0.7880    10.2151  1027.0053 </r>
       <r>    -0.6896    37.4313  1031.7843 </r>
       <r>    -0.5912    69.3969  1038.8298 </r>
       <r>    -0.4927    59.0874  1044.8489 </r>
       <r>    -0.3943    13.4002  1048.1522 </r>
       <r>    -0.2959    16.7471  1050.5151 </r>
       <r>    -0.1975    57.3785  1057.6470 </r>
       <r>    -0.0991    76.6048  1066.0062 </r>
       <r>    -0.0007    56.2143  1072.0000 </r>
       <r>     0.0978    22.0652  1074.1716 </r>
       <r>     0.1962    46.0584  1080.0000 </r>
       <r>     0.2946   100.2076  1089.8621 </r>
       <r>     0.3930    65.9448  1098.0904 </r>
       <r>     0.4914    88.3355  1108.9280 </r>
       <r>     0.5898    79.1282  1117.6553 </r>
       <r>     0.6883    61.2759  1126.0306 </r>
       <r>     0.7867   136.2489  1141.7802 </r>
       <r>     0.8851    98.1619  1152.6289 </r>
       <r>     0.9835    90.2430  1164.2827 </r>
       <r>     1.0819   150.4445  1181.7404 </r>
       <r>     1.1803   141.5446  1198.5326 </r>
       <r>     1.2788   108.4583  1212.6426 </r>
       <r>     1.3772     9.1383  1216.0000 </r>
       <r>     1.4756     0.0000  1216.0000 </r>
       <r>     1.5740     0.0000  1216.0000 </r>
       <r>     1.6724     0.0000  1216.0000 </r>
       <r>     1.7708     0.0000  1216.0000 </r>
       <r>     1.8693     0.0000  1216.0000 </r>
       <r>     1.9677     0.0000  1216.0000 </r>
       <r>     2.0661     0.0000  1216.0000 </r>
       <r>     2.1645     0.0000  1216.0000 </r>
       <r>     2.2629     0.0000  1216.0000 </r>
       <r>     2.3613     0.0000  1216.0000 </r>
       <r>     2.4598     0.0000  1216.0000 </r>
       <r>     2.5582     0.0000  1216.0000 </r>
       <r>     2.6566     0.0000  1216.0000 </r>
      </set>
     </set>
    </array>
   </total>
  </dos>
 </calculation>
 <structure name="finalpos" >
  <crystal>
   <varray name="basis" >
    <v>      38.30019290      -0.01434885       0.00000000 </v>
    <v>     -19.16252141      33.16743316       0.00000000 </v>
    <v>       0.00000000       0.00000000      20.00000000 </v>
   </varray>
   <i name="volume">  25400.88255675 </i>
   <varray name="rec_basis" >
    <v>       0.02611518       0.01508808       0.00000000 </v>
    <v>       0.00001130       0.03015658       0.00000000 </v>
    <v>       0.00000000       0.00000000       0.05000000 </v>
   </varray>
  </crystal>
  <varray name="positions" >
   <v>       0.65192234       0.23886525       0.51308343 </v>
   <v>       0.67880019       0.21271890       0.50138827 </v>
   <v>       0.57726033       0.20286256       0.51467283 </v>
   <v>       0.60643560       0.37359761       0.51444994 </v>
   <v>       0.55335457       0.34665454       0.50326867 </v>
   <v>       0.64518219       0.44821471       0.51509507 </v>
   <v>       0.78694908       0.41872089       0.51409832 </v>
   <v>       0.81302630       0.47173601       0.50194574 </v>
   <v>       0.82296141       0.38010796       0.51531235 </v>
   <v>       0.37844771       0.78218789       0.51536756 </v>
   <v>       0.35170113       0.80849047       0.50396315 </v>
   <v>       0.45322633       0.81801840       0.51573588 </v>
   <v>       0.42350820       0.64697555       0.51271290 </v>
   <v>       0.47662761       0.67390750       0.50178408 </v>
   <v>       0.38481908       0.57229206       0.51410722 </v>
   <v>       0.24316600       0.60218912       0.51434233 </v>
   <v>       0.21723211       0.54913368       0.50294812 </v>
   <v>       0.20707590       0.64062850       0.51446728 </v>
   <v>       0.35735436       0.15966278       0.49942849 </v>
   <v>       0.38434676       0.13331773       0.49683323 </v>
   <v>       0.39279755       0.23376742       0.49298442 </v>
   <v>       0.82215093       0.66792861       0.49559287 </v>
   <v>       0.76876517       0.64085401       0.49453967 </v>
   <v>       0.86076238       0.63230351       0.48981438 </v>
   <v>       0.86580641       0.20345339       0.49955302 </v>
   <v>       0.89217488       0.25684757       0.49799638 </v>
   <v>       0.79154504       0.16478779       0.49229094 </v>
   <v>       0.67295953       0.86106720       0.49825025 </v>
   <v>       0.64593037       0.88738594       0.49612696 </v>
   <v>       0.63734659       0.78681720       0.49237097 </v>
   <v>       0.20774139       0.35280565       0.49900844 </v>
   <v>       0.26109608       0.37956555       0.49692293 </v>
   <v>       0.16939967       0.38844175       0.49261270 </v>
   <v>       0.16481317       0.81747157       0.49796847 </v>
   <v>       0.13838088       0.76404285       0.49663941 </v>
   <v>       0.23902852       0.85602678       0.49176023 </v>
   <v>       0.34204359       0.03925065       0.38554751 </v>
   <v>       0.37887071       0.08354378       0.42115112 </v>
   <v>       0.32733739       0.97231737       0.42861746 </v>
   <v>       0.71680729       0.68306516       0.38361075 </v>
   <v>       0.72404450       0.64604378       0.41881519 </v>
   <v>       0.66502882       0.69824824       0.42760391 </v>
   <v>       0.98546537       0.30797131       0.38616844 </v>
   <v>       0.94140246       0.30077103       0.42230280 </v>
   <v>       0.05272749       0.36000668       0.42870034 </v>
   <v>       0.68809179       0.98112698       0.38458493 </v>
   <v>       0.65130829       0.93696386       0.42061506 </v>
   <v>       0.70273973       0.04819474       0.42676258 </v>
   <v>       0.31207345       0.33723001       0.38614056 </v>
   <v>       0.30518243       0.37433833       0.42209454 </v>
   <v>       0.36434780       0.32217640       0.42844251 </v>
   <v>       0.04425800       0.71241348       0.38442923 </v>
   <v>       0.08846903       0.71980809       0.42005760 </v>
   <v>       0.97718312       0.66031895       0.42771611 </v>
   <v>       0.43642010       0.09288654       0.50643040 </v>
   <v>       0.46240077       0.16058963       0.49118901 </v>
   <v>       0.50385901       0.13442071       0.50044698 </v>
   <v>       0.67616975       0.58888183       0.50515522 </v>
   <v>       0.71785379       0.56278528       0.49139278 </v>
   <v>       0.65014164       0.52145088       0.49989197 </v>
   <v>       0.93277010       0.34925992       0.50777933 </v>
   <v>       0.86503994       0.30763479       0.49247507 </v>
   <v>       0.89142770       0.37530249       0.50158684 </v>
   <v>       0.59402365       0.92792708       0.50642663 </v>
   <v>       0.56791484       0.86017975       0.49135994 </v>
   <v>       0.52657618       0.88643619       0.50121017 </v>
   <v>       0.35383403       0.43162444       0.50698732 </v>
   <v>       0.31230409       0.45775506       0.49120057 </v>
   <v>       0.37999722       0.49903484       0.50073960 </v>
   <v>       0.09757697       0.67155952       0.50578640 </v>
   <v>       0.16544028       0.71316130       0.49206224 </v>
   <v>       0.13878375       0.64536167       0.49971418 </v>
   <v>       0.09758376       0.43126595       0.50173910 </v>
   <v>       0.16475877       0.45728790       0.49248194 </v>
   <v>       0.13824119       0.49894810       0.49460239 </v>
   <v>       0.59432149       0.67192167       0.50192135 </v>
   <v>       0.56842176       0.71314798       0.49207772 </v>
   <v>       0.52662993       0.64495197       0.49543269 </v>
   <v>       0.35392086       0.92796658       0.50250562 </v>
   <v>       0.31264102       0.86079773       0.49298819 </v>
   <v>       0.38084208       0.88725475       0.49618259 </v>
   <v>       0.93268859       0.58943663       0.50180762 </v>
   <v>       0.86551311       0.56342663       0.49208968 </v>
   <v>       0.89204193       0.52175246       0.49450837 </v>
   <v>       0.43569372       0.34866164       0.50156893 </v>
   <v>       0.46164131       0.30748603       0.49182285 </v>
   <v>       0.50342484       0.37566533       0.49554255 </v>
   <v>       0.67658141       0.09289389       0.50072190 </v>
   <v>       0.71790868       0.16005793       0.49124410 </v>
   <v>       0.64969963       0.13366737       0.49408740 </v>
   <v>       0.54466341       0.13909726       0.49535932 </v>
   <v>       0.57934776       0.17593560       0.50476600 </v>
   <v>       0.61706250       0.17768303       0.50077343 </v>
   <v>       0.61449902       0.13936942       0.49117286 </v>
   <v>       0.61397012       0.48066685       0.49526381 </v>
   <v>       0.61612301       0.44605950       0.50529783 </v>
   <v>       0.58008414       0.40836193       0.50213378 </v>
   <v>       0.54432674       0.41089027       0.49242211 </v>
   <v>       0.88677487       0.41141617       0.49633723 </v>
   <v>       0.84988660       0.40916859       0.50547481 </v>
   <v>       0.84810030       0.44509759       0.50129752 </v>
   <v>       0.88640963       0.48088239       0.49150730 </v>
   <v>       0.48579261       0.88181591       0.49664110 </v>
   <v>       0.45113085       0.84497657       0.50619178 </v>
   <v>       0.41344761       0.84331836       0.50285385 </v>
   <v>       0.41605652       0.88163345       0.49318320 </v>
   <v>       0.41620549       0.53981431       0.49599698 </v>
   <v>       0.41393625       0.57444816       0.50490911 </v>
   <v>       0.44992518       0.61218359       0.50133952 </v>
   <v>       0.48575756       0.60968764       0.49242400 </v>
   <v>       0.14337349       0.60920890       0.49463926 </v>
   <v>       0.18022439       0.61152528       0.50455567 </v>
   <v>       0.18203901       0.57560511       0.50127681 </v>
   <v>       0.14381812       0.53977688       0.49126064 </v>
   <v>       0.45751897       0.26673808       0.48924103 </v>
   <v>       0.42025750       0.23184642       0.49060771 </v>
   <v>       0.41877970       0.19434151       0.48981788 </v>
   <v>       0.45712027       0.19633354       0.48813667 </v>
   <v>       0.82886506       0.56754801       0.49031194 </v>
   <v>       0.83130656       0.60483823       0.48942045 </v>
   <v>       0.79529633       0.60636960       0.48888629 </v>
   <v>       0.75889121       0.56803214       0.48916406 </v>
   <v>       0.75873797       0.19667260       0.48937288 </v>
   <v>       0.79358959       0.19423464       0.49053411 </v>
   <v>       0.83117258       0.23024105       0.49041061 </v>
   <v>       0.82924683       0.26662799       0.48931961 </v>
   <v>       0.57261361       0.75392826       0.48945449 </v>
   <v>       0.60991513       0.78880323       0.49031330 </v>
   <v>       0.61148119       0.82635689       0.48948543 </v>
   <v>       0.57315547       0.82440817       0.48828700 </v>
   <v>       0.20137685       0.45316412       0.49037579 </v>
   <v>       0.19886641       0.41585801       0.49086351 </v>
   <v>       0.23482358       0.41425976       0.49006279 </v>
   <v>       0.27128097       0.45255384       0.48875914 </v>
   <v>       0.27185359       0.82414648       0.49113203 </v>
   <v>       0.23700625       0.82658079       0.49084268 </v>
   <v>       0.19942634       0.79057510       0.49042894 </v>
   <v>       0.20133458       0.75417347       0.49007147 </v>
   <v>       0.36319117       0.97044389       0.51032704 </v>
   <v>       0.35042536       0.98954963       0.46599648 </v>
   <v>       0.37031359       0.03204535       0.46719891 </v>
   <v>       0.40304568       0.05065152       0.51261232 </v>
   <v>       0.62745070       0.66251943       0.50958408 </v>
   <v>       0.65916293       0.67511970       0.46490271 </v>
   <v>       0.68152448       0.65498794       0.46560667 </v>
   <v>       0.66738979       0.62229598       0.51105119 </v>
   <v>       0.05512287       0.39810394       0.51019390 </v>
   <v>       0.03572198       0.36608093       0.46619432 </v>
   <v>       0.99321614       0.34364821       0.46780913 </v>
   <v>       0.97495410       0.35801247       0.51343567 </v>
   <v>       0.66728279       0.05041003       0.50884201 </v>
   <v>       0.67982849       0.03112299       0.46448662 </v>
   <v>       0.65997953       0.98863058       0.46617944 </v>
   <v>       0.62742434       0.97019004       0.51194870 </v>
   <v>       0.40255012       0.35800825       0.50979055 </v>
   <v>       0.37049564       0.34534035       0.46581665 </v>
   <v>       0.34808695       0.36542688       0.46737440 </v>
   <v>       0.36255287       0.39818303       0.51276677 </v>
   <v>       0.97519149       0.62266964       0.50966738 </v>
   <v>       0.99437880       0.65448059       0.46517525 </v>
   <v>       0.03689156       0.67701807       0.46628858 </v>
   <v>       0.05539230       0.66285641       0.51177074 </v>
   <v>       0.42899811       0.12320561       0.49312116 </v>
   <v>       0.50027101       0.16725055       0.49290907 </v>
   <v>       0.47308249       0.09704816       0.51199976 </v>
   <v>       0.71395661       0.59620469       0.49265337 </v>
   <v>       0.68655537       0.52494536       0.49302970 </v>
   <v>       0.64356843       0.55228427       0.51062135 </v>
   <v>       0.90233539       0.31151765       0.49478075 </v>
   <v>       0.85854293       0.33893602       0.49370436 </v>
   <v>       0.92875698       0.38182904       0.51337279 </v>
   <v>       0.60133221       0.89754309       0.49305123 </v>
   <v>       0.53006619       0.85357703       0.49331386 </v>
   <v>       0.55741050       0.92379740       0.51263188 </v>
   <v>       0.31613785       0.42432141       0.49350902 </v>
   <v>       0.34368284       0.49554634       0.49213456 </v>
   <v>       0.38639252       0.46823015       0.51313117 </v>
   <v>       0.12815624       0.70937073       0.49367077 </v>
   <v>       0.17180287       0.68177540       0.49308632 </v>
   <v>       0.10139606       0.63883676       0.51066466 </v>
   <v>       0.12820372       0.42365008       0.49507711 </v>
   <v>       0.17128026       0.49504872       0.49248709 </v>
   <v>       0.10060040       0.46752565       0.50122228 </v>
   <v>       0.60198116       0.71016184       0.49467993 </v>
   <v>       0.53062958       0.68191436       0.49254488 </v>
   <v>       0.55801046       0.63871159       0.50226405 </v>
   <v>       0.31567437       0.89737615       0.49515799 </v>
   <v>       0.34385950       0.85426543       0.49332651 </v>
   <v>       0.38712594       0.92487538       0.50316020 </v>
   <v>       0.90205396       0.59703959       0.49505053 </v>
   <v>       0.85904363       0.52568052       0.49146763 </v>
   <v>       0.92964858       0.55315944       0.50184756 </v>
   <v>       0.42803733       0.31044948       0.49383610 </v>
   <v>       0.49943547       0.33870561       0.49293804 </v>
   <v>       0.47201590       0.38186814       0.50220778 </v>
   <v>       0.71486176       0.12348111       0.49371467 </v>
   <v>       0.68670023       0.16662629       0.49141332 </v>
   <v>       0.64339562       0.09601477       0.50086867 </v>
   <v>       0.49209082       0.23193637       0.48631119 </v>
   <v>       0.49304112       0.26662191       0.48668262 </v>
   <v>       0.75944830       0.53305082       0.49014693 </v>
   <v>       0.79314818       0.53202934       0.49081889 </v>
   <v>       0.79370973       0.26607620       0.48789957 </v>
   <v>       0.75895241       0.23236283       0.48781802 </v>
   <v>       0.53817502       0.78883427       0.48694665 </v>
   <v>       0.53711324       0.75409370       0.48736798 </v>
   <v>       0.27076494       0.48756161       0.48823534 </v>
   <v>       0.23710245       0.48865193       0.48906557 </v>
   <v>       0.23689887       0.75474756       0.49058284 </v>
   <v>       0.27166262       0.78844533       0.49115965 </v>
   <v>       0.65218678       0.21279330       0.50667049 </v>
   <v>       0.58001154       0.37328377       0.50898725 </v>
   <v>       0.81297950       0.44506135       0.50715892 </v>
   <v>       0.37827241       0.80834097       0.50946852 </v>
   <v>       0.44991073       0.64727927       0.50697238 </v>
   <v>       0.21713789       0.57572590       0.50831597 </v>
   <v>       0.40921967       0.02962559       0.56087293 </v>
   <v>       0.38947355       0.99012064       0.56116528 </v>
   <v>       0.64030775       0.61618709       0.55945220 </v>
   <v>       0.62077054       0.63612035       0.56025325 </v>
   <v>       0.99627003       0.38536852       0.56130786 </v>
   <v>       0.03577107       0.40502583       0.56116446 </v>
   <v>       0.62144963       0.99141883       0.56003917 </v>
   <v>       0.64123609       0.03091746       0.56005457 </v>
   <v>       0.38989828       0.40424626       0.56065434 </v>
   <v>       0.40948254       0.38436416       0.56067741 </v>
   <v>       0.03431983       0.63571129       0.56005933 </v>
   <v>       0.99481818       0.61605068       0.56054087 </v>
   <v>       0.38313132       0.15919384       0.49040415 </v>
   <v>       0.79581166       0.64201351       0.48771113 </v>
   <v>       0.86633192       0.22976477       0.49099412 </v>
   <v>       0.64713815       0.86151165       0.48959129 </v>
   <v>       0.23410811       0.37852463       0.49020906 </v>
   <v>       0.16431179       0.79111051       0.49010780 </v>
   <v>       0.57923469       0.10531638       0.47829387 </v>
   <v>       0.54471216       0.10448568       0.47903986 </v>
   <v>       0.54552938       0.44605855       0.47889033 </v>
   <v>       0.57928696       0.48056831       0.47900138 </v>
   <v>       0.92048438       0.47973367       0.47866314 </v>
   <v>       0.92137860       0.44607051       0.47993753 </v>
   <v>       0.45127702       0.91569004       0.48007328 </v>
   <v>       0.48578032       0.91647972       0.48064135 </v>
   <v>       0.48469763       0.57446794       0.48004934 </v>
   <v>       0.45100237       0.53989541       0.48059057 </v>
   <v>       0.10976243       0.54082116       0.47764100 </v>
   <v>       0.10882752       0.57446993       0.47818503 </v>
   <v>       0.35938074       0.05347515       0.42588139 </v>
   <v>       0.71364812       0.66564011       0.42381746 </v>
   <v>       0.97147014       0.31126511       0.42664157 </v>
   <v>       0.67079791       0.96705077       0.42502836 </v>
   <v>       0.31559643       0.35471437       0.42644746 </v>
   <v>       0.05843374       0.70934159       0.42485098 </v>
  </varray>
 </structure>
</modeling>
