<?xml version="1.0" encoding="ISO-8859-1"?>
<modeling>
 <generator>
  <i name="program" type="string">vasp </i>
  <i name="version" type="string">5.4.4.18Apr17-6-g9f103f2a35  </i>
  <i name="subversion" type="string">(build Jun 07 2020 16:50:00) complex            parallel </i>
  <i name="platform" type="string">LinuxIFC </i>
  <i name="date" type="string">2023 02 14 </i>
  <i name="time" type="string">15:46:08 </i>
 </generator>
 <incar>
  <i type="string" name="SYSTEM">Simulation for cell shape cell volume r</i>
  <i type="int" name="ISTART">     1</i>
  <i type="string" name="PREC">high</i>
  <i type="string" name="ALGO">48</i>
  <i type="int" name="ICHARG">    11</i>
  <i type="int" name="NELM">   200</i>
  <i type="int" name="IBRION">    -1</i>
  <i name="EDIFF">      0.00001000</i>
  <i name="EDIFFG">     -0.01000000</i>
  <i type="int" name="NSW">     0</i>
  <i type="int" name="ISIF">     2</i>
  <i name="ENCUT">    500.00000000</i>
  <i name="POTIM">      0.30000000</i>
  <i type="string" name="LREAL">A</i>
  <i type="int" name="ISMEAR">     0</i>
  <i name="SIGMA">      0.01000000</i>
  <i type="int" name="NWRITE">     0</i>
  <i type="logical" name="LWAVE"> F  </i>
  <i type="logical" name="LCHARG"> F  </i>
  <v type="int" name="KPOINT_BSE">    -1     0     0     0</v>
  <i type="int" name="NELM">   200</i>
  <i type="string" name="GGA">PE</i>
 </incar>
 <structure name="primitive_cell" >
  <crystal>
   <varray name="basis" >
    <v>      22.39849281       0.02405983       0.00000000 </v>
    <v>     -11.17817376      19.38227077       0.00000000 </v>
    <v>       0.00000000       0.00000000      20.00000000 </v>
   </varray>
   <i name="volume">   8688.05194930 </i>
   <varray name="rec_basis" >
    <v>       0.04461822       0.02573229       0.00000000 </v>
    <v>      -0.00005539       0.05156160       0.00000000 </v>
    <v>       0.00000000       0.00000000       0.05000000 </v>
   </varray>
  </crystal>
  <varray name="positions" >
   <v>       0.20215183      -0.40276795      -0.49294453 </v>
   <v>       0.16733562      -0.43045242       0.44666431 </v>
   <v>       0.16094892      -0.41123726      -0.43686815 </v>
   <v>       0.27865510      -0.36452361      -0.48972220 </v>
   <v>       0.19775792      -0.42388632       0.40182311 </v>
   <v>       0.09559690      -0.46564614       0.44299461 </v>
   <v>       0.08936255      -0.44581205      -0.43958931 </v>
   <v>       0.31437029      -0.29271376      -0.48312278 </v>
   <v>       0.31524571      -0.40012127      -0.49144216 </v>
   <v>       0.19263203      -0.38460615      -0.37061091 </v>
   <v>       0.28608632      -0.26471451      -0.48192815 </v>
   <v>       0.28744999      -0.45620064      -0.49548440 </v>
   <v>       0.05535917      -0.47464232      -0.49993222 </v>
   <v>       0.23873364      -0.39610778      -0.35256176 </v>
   <v>       0.07020174      -0.48767701       0.39546153 </v>
   <v>       0.06049014      -0.44956174      -0.39440675 </v>
   <v>       0.16930079      -0.35391312      -0.33751601 </v>
   <v>       0.38613035      -0.25656448      -0.47642993 </v>
   <v>       0.38679345      -0.36466648      -0.48330971 </v>
   <v>       0.42200930      -0.29285106      -0.47570948 </v>
   <v>      -0.02080699       0.48605132       0.49807160 </v>
   <v>      -0.02948181       0.42446220      -0.41529241 </v>
   <v>       0.42505959      -0.40306447      -0.48359552 </v>
   <v>       0.42407848      -0.17989158      -0.47399035 </v>
   <v>      -0.03040371      -0.46188227       0.41116956 </v>
   <v>       0.39158239      -0.22757905      -0.33899296 </v>
   <v>       0.39854991      -0.38674371      -0.34573716 </v>
   <v>      -0.05759706       0.43534188      -0.45345229 </v>
   <v>      -0.05808355       0.49861809       0.44900605 </v>
   <v>       0.40668594      -0.42770149       0.41191515 </v>
   <v>       0.41132033      -0.17192925       0.42056739 </v>
   <v>       0.47792105      -0.26495587      -0.46995054 </v>
   <v>       0.43116430      -0.43297069       0.45695538 </v>
   <v>       0.43344918      -0.14292763       0.46650643 </v>
   <v>       0.45419243      -0.14062784      -0.41622289 </v>
   <v>       0.45845343      -0.41000811      -0.42718038 </v>
   <v>       0.44682495      -0.17457260      -0.35074077 </v>
   <v>       0.45430462      -0.38154076      -0.36157613 </v>
   <v>      -0.12925170       0.39835713      -0.45408853 </v>
   <v>      -0.12989594       0.46267436       0.44935936 </v>
   <v>       0.46764761      -0.46833209       0.45433123 </v>
   <v>       0.47009781      -0.07116003       0.46500969 </v>
   <v>      -0.16667873       0.41186049       0.49773416 </v>
   <v>      -0.49282901      -0.35555507      -0.32662017 </v>
   <v>       0.49650958      -0.14656284      -0.31181856 </v>
   <v>       0.49125546      -0.06879428      -0.41681387 </v>
   <v>       0.49537061      -0.44490113      -0.42891732 </v>
   <v>      -0.15697579       0.35939674      -0.41583785 </v>
   <v>      -0.15804244       0.47362384       0.41128270 </v>
   <v>       0.47035624      -0.49182500       0.40745294 </v>
   <v>       0.47539137      -0.04419607       0.41799994 </v>
   <v>       0.49993690      -0.47543327      -0.48838112 </v>
   <v>       0.49935465      -0.03276263      -0.47645896 </v>
   <v>      -0.48556759      -0.04157873      -0.37038568 </v>
   <v>      -0.47898704      -0.44730859      -0.38354176 </v>
   <v>      -0.24290908       0.37390283       0.49999959 </v>
   <v>      -0.46236351       0.48597754      -0.49002505 </v>
   <v>      -0.46211535       0.04347444      -0.47786734 </v>
   <v>      -0.25105461       0.27381637      -0.49257889 </v>
   <v>      -0.25188885       0.46549022       0.49397971 </v>
   <v>       0.48962365       0.42748870      -0.40045948 </v>
   <v>       0.48637993       0.05540691      -0.39179253 </v>
   <v>      -0.27921696       0.30197840      -0.49281810 </v>
   <v>      -0.27977483       0.40939047       0.49838968 </v>
   <v>      -0.47320513       0.43728959      -0.44021351 </v>
   <v>      -0.47470375       0.08211707      -0.43033310 </v>
   <v>      -0.40116749       0.04982588       0.43575395 </v>
   <v>      -0.40522383      -0.46475249       0.42016332 </v>
   <v>      -0.41214611       0.07894936       0.47271856 </v>
   <v>      -0.41475363       0.49721438       0.45898167 </v>
   <v>      -0.35105404       0.26564716      -0.48557477 </v>
   <v>      -0.35147635       0.37435832      -0.49279251 </v>
   <v>      -0.43801041       0.40066554      -0.44168947 </v>
   <v>      -0.43925464       0.15391430      -0.43282007 </v>
   <v>      -0.33700888       0.17745459       0.43245656 </v>
   <v>      -0.34142013       0.47124924       0.41854987 </v>
   <v>      -0.37563275       0.15069606       0.47121195 </v>
   <v>      -0.37844289       0.46165281       0.45839251 </v>
   <v>      -0.38645273       0.30258611      -0.48402967 </v>
   <v>      -0.44707440       0.36307077      -0.40255105 </v>
   <v>      -0.44998298       0.18308645      -0.39570218 </v>
   <v>      -0.38892429       0.18941785      -0.48193061 </v>
   <v>      -0.38965944       0.41254275      -0.49213389 </v>
   <v>      -0.44245430       0.27473598      -0.47918676 </v>
  </varray>
 </structure>
 <varray name="primitive_index" >
  <v type="int" >        1 </v>
  <v type="int" >        6 </v>
  <v type="int" >        2 </v>
  <v type="int" >        7 </v>
  <v type="int" >       60 </v>
  <v type="int" >        5 </v>
  <v type="int" >        3 </v>
  <v type="int" >       12 </v>
  <v type="int" >        8 </v>
  <v type="int" >       49 </v>
  <v type="int" >       61 </v>
  <v type="int" >       62 </v>
  <v type="int" >        4 </v>
  <v type="int" >       53 </v>
  <v type="int" >       59 </v>
  <v type="int" >       58 </v>
  <v type="int" >       52 </v>
  <v type="int" >       11 </v>
  <v type="int" >        9 </v>
  <v type="int" >       10 </v>
  <v type="int" >       41 </v>
  <v type="int" >       77 </v>
  <v type="int" >       15 </v>
  <v type="int" >       13 </v>
  <v type="int" >       84 </v>
  <v type="int" >       54 </v>
  <v type="int" >       55 </v>
  <v type="int" >       42 </v>
  <v type="int" >       48 </v>
  <v type="int" >       64 </v>
  <v type="int" >       63 </v>
  <v type="int" >       65 </v>
  <v type="int" >       18 </v>
  <v type="int" >       17 </v>
  <v type="int" >       14 </v>
  <v type="int" >       16 </v>
  <v type="int" >       50 </v>
  <v type="int" >       51 </v>
  <v type="int" >       43 </v>
  <v type="int" >       47 </v>
  <v type="int" >       31 </v>
  <v type="int" >       29 </v>
  <v type="int" >       44 </v>
  <v type="int" >       57 </v>
  <v type="int" >       56 </v>
  <v type="int" >       19 </v>
  <v type="int" >       24 </v>
  <v type="int" >       78 </v>
  <v type="int" >       83 </v>
  <v type="int" >       74 </v>
  <v type="int" >       73 </v>
  <v type="int" >       25 </v>
  <v type="int" >       20 </v>
  <v type="int" >       69 </v>
  <v type="int" >       72 </v>
  <v type="int" >       33 </v>
  <v type="int" >       26 </v>
  <v type="int" >       21 </v>
  <v type="int" >       75 </v>
  <v type="int" >       76 </v>
  <v type="int" >       70 </v>
  <v type="int" >       67 </v>
  <v type="int" >       38 </v>
  <v type="int" >       34 </v>
  <v type="int" >       27 </v>
  <v type="int" >       22 </v>
  <v type="int" >       80 </v>
  <v type="int" >       82 </v>
  <v type="int" >       30 </v>
  <v type="int" >       32 </v>
  <v type="int" >       37 </v>
  <v type="int" >       35 </v>
  <v type="int" >       28 </v>
  <v type="int" >       23 </v>
  <v type="int" >       79 </v>
  <v type="int" >       81 </v>
  <v type="int" >       45 </v>
  <v type="int" >       46 </v>
  <v type="int" >       36 </v>
  <v type="int" >       71 </v>
  <v type="int" >       68 </v>
  <v type="int" >       39 </v>
  <v type="int" >       40 </v>
  <v type="int" >       66 </v>
 </varray>
 <kpoints>
  <generation param="listgenerated">
   <i name="divisions" type="int">      20 </i>
   <v>       0.00000000       0.00000000       0.00000000 </v>
   <v>       0.50000000       0.00000000       0.00000000 </v>
   <v>       0.33333333       0.33333333       0.00000000 </v>
   <v>       0.00000000       0.00000000       0.00000000 </v>
  </generation>
  <varray name="kpointlist" >
   <v>       0.00000000       0.00000000       0.00000000 </v>
   <v>       0.02631579       0.00000000       0.00000000 </v>
   <v>       0.05263158       0.00000000       0.00000000 </v>
   <v>       0.07894737       0.00000000       0.00000000 </v>
   <v>       0.10526316       0.00000000       0.00000000 </v>
   <v>       0.13157895       0.00000000       0.00000000 </v>
   <v>       0.15789474       0.00000000       0.00000000 </v>
   <v>       0.18421053       0.00000000       0.00000000 </v>
   <v>       0.21052632       0.00000000       0.00000000 </v>
   <v>       0.23684211       0.00000000       0.00000000 </v>
   <v>       0.26315789       0.00000000       0.00000000 </v>
   <v>       0.28947368       0.00000000       0.00000000 </v>
   <v>       0.31578947       0.00000000       0.00000000 </v>
   <v>       0.34210526       0.00000000       0.00000000 </v>
   <v>       0.36842105       0.00000000       0.00000000 </v>
   <v>       0.39473684       0.00000000       0.00000000 </v>
   <v>       0.42105263       0.00000000       0.00000000 </v>
   <v>       0.44736842       0.00000000       0.00000000 </v>
   <v>       0.47368421       0.00000000       0.00000000 </v>
   <v>       0.50000000       0.00000000       0.00000000 </v>
   <v>       0.50000000       0.00000000       0.00000000 </v>
   <v>       0.49122807       0.01754386       0.00000000 </v>
   <v>       0.48245614       0.03508772       0.00000000 </v>
   <v>       0.47368421       0.05263158       0.00000000 </v>
   <v>       0.46491228       0.07017544       0.00000000 </v>
   <v>       0.45614035       0.08771930       0.00000000 </v>
   <v>       0.44736842       0.10526316       0.00000000 </v>
   <v>       0.43859649       0.12280702       0.00000000 </v>
   <v>       0.42982456       0.14035088       0.00000000 </v>
   <v>       0.42105263       0.15789474       0.00000000 </v>
   <v>       0.41228070       0.17543860       0.00000000 </v>
   <v>       0.40350877       0.19298246       0.00000000 </v>
   <v>       0.39473684       0.21052632       0.00000000 </v>
   <v>       0.38596491       0.22807018       0.00000000 </v>
   <v>       0.37719298       0.24561404       0.00000000 </v>
   <v>       0.36842105       0.26315789       0.00000000 </v>
   <v>       0.35964912       0.28070175       0.00000000 </v>
   <v>       0.35087719       0.29824561       0.00000000 </v>
   <v>       0.34210526       0.31578947       0.00000000 </v>
   <v>       0.33333333       0.33333333       0.00000000 </v>
   <v>       0.33333333       0.33333333       0.00000000 </v>
   <v>       0.31578947       0.31578947       0.00000000 </v>
   <v>       0.29824561       0.29824561       0.00000000 </v>
   <v>       0.28070175       0.28070175       0.00000000 </v>
   <v>       0.26315789       0.26315789       0.00000000 </v>
   <v>       0.24561404       0.24561404       0.00000000 </v>
   <v>       0.22807018       0.22807018       0.00000000 </v>
   <v>       0.21052632       0.21052632       0.00000000 </v>
   <v>       0.19298246       0.19298246       0.00000000 </v>
   <v>       0.17543860       0.17543860       0.00000000 </v>
   <v>       0.15789474       0.15789474       0.00000000 </v>
   <v>       0.14035088       0.14035088       0.00000000 </v>
   <v>       0.12280702       0.12280702       0.00000000 </v>
   <v>       0.10526316       0.10526316       0.00000000 </v>
   <v>       0.08771930       0.08771930       0.00000000 </v>
   <v>       0.07017544       0.07017544       0.00000000 </v>
   <v>       0.05263158       0.05263158       0.00000000 </v>
   <v>       0.03508772       0.03508772       0.00000000 </v>
   <v>       0.01754386       0.01754386       0.00000000 </v>
   <v>       0.00000000       0.00000000       0.00000000 </v>
  </varray>
  <varray name="weights" >
   <v>       0.01666667 </v>
   <v>       0.01666667 </v>
   <v>       0.01666667 </v>
   <v>       0.01666667 </v>
   <v>       0.01666667 </v>
   <v>       0.01666667 </v>
   <v>       0.01666667 </v>
   <v>       0.01666667 </v>
   <v>       0.01666667 </v>
   <v>       0.01666667 </v>
   <v>       0.01666667 </v>
   <v>       0.01666667 </v>
   <v>       0.01666667 </v>
   <v>       0.01666667 </v>
   <v>       0.01666667 </v>
   <v>       0.01666667 </v>
   <v>       0.01666667 </v>
   <v>       0.01666667 </v>
   <v>       0.01666667 </v>
   <v>       0.01666667 </v>
   <v>       0.01666667 </v>
   <v>       0.01666667 </v>
   <v>       0.01666667 </v>
   <v>       0.01666667 </v>
   <v>       0.01666667 </v>
   <v>       0.01666667 </v>
   <v>       0.01666667 </v>
   <v>       0.01666667 </v>
   <v>       0.01666667 </v>
   <v>       0.01666667 </v>
   <v>       0.01666667 </v>
   <v>       0.01666667 </v>
   <v>       0.01666667 </v>
   <v>       0.01666667 </v>
   <v>       0.01666667 </v>
   <v>       0.01666667 </v>
   <v>       0.01666667 </v>
   <v>       0.01666667 </v>
   <v>       0.01666667 </v>
   <v>       0.01666667 </v>
   <v>       0.01666667 </v>
   <v>       0.01666667 </v>
   <v>       0.01666667 </v>
   <v>       0.01666667 </v>
   <v>       0.01666667 </v>
   <v>       0.01666667 </v>
   <v>       0.01666667 </v>
   <v>       0.01666667 </v>
   <v>       0.01666667 </v>
   <v>       0.01666667 </v>
   <v>       0.01666667 </v>
   <v>       0.01666667 </v>
   <v>       0.01666667 </v>
   <v>       0.01666667 </v>
   <v>       0.01666667 </v>
   <v>       0.01666667 </v>
   <v>       0.01666667 </v>
   <v>       0.01666667 </v>
   <v>       0.01666667 </v>
   <v>       0.01666667 </v>
  </varray>
 </kpoints>
 <parameters>
  <separator name="general" >
   <i type="string" name="SYSTEM">Simulation for cell shape cell volume r</i>
   <i type="logical" name="LCOMPAT"> F  </i>
  </separator>
  <separator name="electronic" >
   <i type="string" name="PREC">high</i>
   <i name="ENMAX">    500.00000000</i>
   <i name="ENAUG">    644.87300000</i>
   <i name="EDIFF">      0.00001000</i>
   <i type="int" name="IALGO">    38</i>
   <i type="int" name="IWAVPR">    10</i>
   <i type="int" name="NBANDS">   192</i>
   <i name="NELECT">    270.00000000</i>
   <i type="int" name="TURBO">     0</i>
   <i type="int" name="IRESTART">     0</i>
   <i type="int" name="NREBOOT">     0</i>
   <i type="int" name="NMIN">     0</i>
   <i name="EREF">      0.00000000</i>
   <separator name="electronic smearing" >
    <i type="int" name="ISMEAR">     0</i>
    <i name="SIGMA">      0.01000000</i>
    <i name="KSPACING">      0.50000000</i>
    <i type="logical" name="KGAMMA"> T  </i>
   </separator>
   <separator name="electronic projectors" >
    <i type="logical" name="LREAL"> T  </i>
    <v name="ROPT">     -0.00040000     -0.00040000     -0.00040000     -0.00040000</v>
    <i type="int" name="LMAXPAW">  -100</i>
    <i type="int" name="LMAXMIX">     2</i>
    <i type="logical" name="NLSPLINE"> F  </i>
   </separator>
   <separator name="electronic startup" >
    <i type="int" name="ISTART">     1</i>
    <i type="int" name="ICHARG">    11</i>
    <i type="int" name="INIWAV">     1</i>
   </separator>
   <separator name="electronic spin" >
    <i type="int" name="ISPIN">     1</i>
    <i type="logical" name="LNONCOLLINEAR"> F  </i>
    <v name="MAGMOM">      1.00000000      1.00000000      1.00000000      1.00000000      1.00000000      1.00000000      1.00000000      1.00000000      1.00000000      1.00000000      1.00000000      1.00000000      1.00000000      1.00000000      1.00000000      1.00000000      1.00000000      1.00000000      1.00000000      1.00000000
      1.00000000      1.00000000      1.00000000      1.00000000      1.00000000      1.00000000      1.00000000      1.00000000      1.00000000      1.00000000      1.00000000      1.00000000      1.00000000      1.00000000      1.00000000      1.00000000      1.00000000      1.00000000      1.00000000      1.00000000
      1.00000000      1.00000000      1.00000000      1.00000000      1.00000000      1.00000000      1.00000000      1.00000000      1.00000000      1.00000000      1.00000000      1.00000000      1.00000000      1.00000000      1.00000000      1.00000000      1.00000000      1.00000000      1.00000000      1.00000000
      1.00000000      1.00000000      1.00000000      1.00000000      1.00000000      1.00000000      1.00000000      1.00000000      1.00000000      1.00000000      1.00000000      1.00000000      1.00000000      1.00000000      1.00000000      1.00000000      1.00000000      1.00000000      1.00000000      1.00000000
      1.00000000      1.00000000      1.00000000      1.00000000</v>
    <i name="NUPDOWN">     -1.00000000</i>
    <i type="logical" name="LSORBIT"> F  </i>
    <v name="SAXIS">      0.00000000      0.00000000      1.00000000</v>
    <i type="logical" name="LSPIRAL"> F  </i>
    <v name="QSPIRAL">      0.00000000      0.00000000      0.00000000</v>
    <i type="logical" name="LZEROZ"> F  </i>
   </separator>
   <separator name="electronic exchange-correlation" >
    <i type="logical" name="LASPH"> F  </i>
    <i type="logical" name="LMETAGGA"> F  </i>
   </separator>
   <separator name="electronic convergence" >
    <i type="int" name="NELM">   200</i>
    <i type="int" name="NELMDL">     0</i>
    <i type="int" name="NELMIN">     2</i>
    <i name="ENINI">    500.00000000</i>
    <separator name="electronic convergence detail" >
     <i type="logical" name="LDIAG"> T  </i>
     <i type="logical" name="LSUBROT"> F  </i>
     <i name="WEIMIN">      0.00000000</i>
     <i name="EBREAK">      0.00000001</i>
     <i name="DEPER">      0.30000000</i>
     <i type="int" name="NRMM">     4</i>
     <i name="TIME">      0.40000000</i>
    </separator>
   </separator>
   <separator name="electronic mixer" >
    <i name="AMIX">      0.40000000</i>
    <i name="BMIX">      1.00000000</i>
    <i name="AMIN">      0.10000000</i>
    <i name="AMIX_MAG">      1.60000000</i>
    <i name="BMIX_MAG">      1.00000000</i>
    <separator name="electronic mixer details" >
     <i type="int" name="IMIX">     4</i>
     <i type="logical" name="MIXFIRST"> F  </i>
     <i type="int" name="MAXMIX">   -45</i>
     <i name="WC">    100.00000000</i>
     <i type="int" name="INIMIX">     1</i>
     <i type="int" name="MIXPRE">     1</i>
     <i type="int" name="MREMOVE">     5</i>
    </separator>
   </separator>
   <separator name="electronic dipolcorrection" >
    <i type="logical" name="LDIPOL"> F  </i>
    <i type="logical" name="LMONO"> F  </i>
    <i type="int" name="IDIPOL">     0</i>
    <i name="EPSILON">      1.00000000</i>
    <v name="DIPOL">   -100.00000000   -100.00000000   -100.00000000</v>
    <i name="EFIELD">      0.00000000</i>
   </separator>
  </separator>
  <separator name="grids" >
   <i type="int" name="NGX">   168</i>
   <i type="int" name="NGY">   168</i>
   <i type="int" name="NGZ">   150</i>
   <i type="int" name="NGXF">   250</i>
   <i type="int" name="NGYF">   250</i>
   <i type="int" name="NGZF">   224</i>
   <i type="logical" name="ADDGRID"> F  </i>
  </separator>
  <separator name="ionic" >
   <i type="int" name="NSW">     0</i>
   <i type="int" name="IBRION">    -1</i>
   <i type="int" name="MDALGO">     0</i>
   <i type="int" name="ISIF">     2</i>
   <i name="PSTRESS">      0.00000000</i>
   <i name="EDIFFG">     -0.01000000</i>
   <i type="int" name="NFREE">     0</i>
   <i name="POTIM">      0.30000000</i>
   <i name="SMASS">     -3.00000000</i>
   <i name="SCALEE">      1.00000000</i>
  </separator>
  <separator name="ionic md" >
   <i name="TEBEG">      0.00010000</i>
   <i name="TEEND">      0.00010000</i>
   <i type="int" name="NBLOCK">     1</i>
   <i type="int" name="KBLOCK">     1</i>
   <i type="int" name="NPACO">   256</i>
   <i name="APACO">     16.00000000</i>
  </separator>
  <separator name="symmetry" >
   <i type="int" name="ISYM">     2</i>
   <i name="SYMPREC">      0.00001000</i>
  </separator>
  <separator name="dos" >
   <i type="int" name="LORBIT">     0</i>
   <v name="RWIGS">     -1.00000000     -1.00000000     -1.00000000     -1.00000000</v>
   <i type="int" name="NEDOS">   301</i>
   <i name="EMIN">     10.00000000</i>
   <i name="EMAX">    -10.00000000</i>
   <i name="EFERMI">      0.00000000</i>
  </separator>
  <separator name="writing" >
   <i type="int" name="NWRITE">     0</i>
   <i type="logical" name="LWAVE"> F  </i>
   <i type="logical" name="LDOWNSAMPLE"> F  </i>
   <i type="logical" name="LCHARG"> F  </i>
   <i type="logical" name="LPARD"> F  </i>
   <i type="logical" name="LVTOT"> F  </i>
   <i type="logical" name="LVHAR"> F  </i>
   <i type="logical" name="LELF"> F  </i>
   <i type="logical" name="LOPTICS"> F  </i>
   <v name="STM">      0.00000000      0.00000000      0.00000000      0.00000000      0.00000000      0.00000000      0.00000000</v>
  </separator>
  <separator name="performance" >
   <i type="int" name="NPAR">    16</i>
   <i type="int" name="NSIM">     4</i>
   <i type="int" name="NBLK">    -1</i>
   <i type="logical" name="LPLANE"> T  </i>
   <i type="logical" name="LSCALAPACK"> T  </i>
   <i type="logical" name="LSCAAWARE"> F  </i>
   <i type="logical" name="LSCALU"> F  </i>
   <i type="logical" name="LASYNC"> F  </i>
   <i type="logical" name="LORBITALREAL"> F  </i>
  </separator>
  <separator name="miscellaneous" >
   <i type="int" name="IDIOT">     3</i>
   <i type="int" name="ISPECIAL">     0</i>
   <i type="logical" name="LMUSIC"> F  </i>
   <v name="POMASS">     12.01100000     14.00100000     16.00000000      1.00000000</v>
   <v name="DARWINR">      0.00000000      0.00000000      0.00000000      0.00000000</v>
   <v name="DARWINV">      1.00000000      1.00000000      1.00000000      1.00000000</v>
   <i type="logical" name="LCORR"> T  </i>
  </separator>
  <i type="logical" name="GGA_COMPAT"> T  </i>
  <i type="logical" name="LBERRY"> F  </i>
  <i type="int" name="ICORELEVEL">     0</i>
  <i type="logical" name="LDAU"> F  </i>
  <i type="int" name="I_CONSTRAINED_M">     0</i>
  <separator name="electronic exchange-correlation" >
   <i type="string" name="GGA">PE</i>
   <i type="int" name="VOSKOWN">     0</i>
   <i type="logical" name="LHFCALC"> F  </i>
   <i type="string" name="PRECFOCK"></i>
   <i type="logical" name="LSYMGRAD"> F  </i>
   <i type="logical" name="LHFONE"> F  </i>
   <i type="logical" name="LRHFCALC"> F  </i>
   <i type="logical" name="LTHOMAS"> F  </i>
   <i type="logical" name="LMODELHF"> F  </i>
   <i name="ENCUT4O">     -1.00000000</i>
   <i type="int" name="EXXOEP">     0</i>
   <i type="int" name="FOURORBIT">     0</i>
   <i name="AEXX">      0.00000000</i>
   <i name="HFALPHA">      0.00000000</i>
   <i name="MCALPHA">      0.00000000</i>
   <i name="ALDAX">      1.00000000</i>
   <i name="AGGAX">      1.00000000</i>
   <i name="ALDAC">      1.00000000</i>
   <i name="AGGAC">      1.00000000</i>
   <i type="int" name="NKREDX">     1</i>
   <i type="int" name="NKREDY">     1</i>
   <i type="int" name="NKREDZ">     1</i>
   <i type="logical" name="SHIFTRED"> F  </i>
   <i type="logical" name="ODDONLY"> F  </i>
   <i type="logical" name="EVENONLY"> F  </i>
   <i type="int" name="LMAXFOCK">     0</i>
   <i type="int" name="NMAXFOCKAE">     0</i>
   <i type="logical" name="LFOCKAEDFT"> F  </i>
   <i name="HFSCREEN">      0.00000000</i>
   <i name="HFSCREENC">      0.00000000</i>
   <i type="int" name="NBANDSGWLOW">     0</i>
  </separator>
  <separator name="vdW DFT" >
   <i type="logical" name="LUSE_VDW"> F  </i>
   <i name="Zab_VDW">     -0.84910000</i>
   <i name="PARAM1">      0.12340000</i>
   <i name="PARAM2">      1.00000000</i>
   <i name="PARAM3">      0.00000000</i>
  </separator>
  <separator name="model GW" >
   <i type="int" name="MODEL_GW">     0</i>
   <i name="MODEL_EPS0">     62.05751392</i>
   <i name="MODEL_ALPHA">      1.00000000</i>
  </separator>
  <separator name="linear response parameters" >
   <i type="logical" name="LEPSILON"> F  </i>
   <i type="logical" name="LRPA"> F  </i>
   <i type="logical" name="LNABLA"> F  </i>
   <i type="logical" name="LVEL"> F  </i>
   <i type="int" name="KINTER">     0</i>
   <i name="CSHIFT">      0.10000000</i>
   <i name="OMEGAMAX">     -1.00000000</i>
   <i name="DEG_THRESHOLD">      0.00200000</i>
   <i name="RTIME">     -0.10000000</i>
   <i name="WPLASMAI">      0.00000000</i>
   <v name="DFIELD">      0.00000000      0.00000000      0.00000000</v>
   <v name="WPLASMA">      0.00000000      0.00000000      0.00000000      0.00000000      0.00000000      0.00000000      0.00000000      0.00000000      0.00000000</v>
  </separator>
  <separator name="orbital magnetization" >
   <i type="logical" name="NUCIND"> F  </i>
   <v name="MAGPOS">      0.00000000      0.00000000      0.00000000</v>
   <i type="logical" name="LNICSALL"> T  </i>
   <i type="logical" name="ORBITALMAG"> F  </i>
   <i type="logical" name="LMAGBLOCH"> F  </i>
   <i type="logical" name="LCHIMAG"> F  </i>
   <i type="logical" name="LGAUGE"> T  </i>
   <i type="int" name="MAGATOM">     0</i>
   <v name="MAGDIPOL">      0.00000000      0.00000000      0.00000000</v>
   <v name="AVECCONST">      0.00000000      0.00000000      0.00000000</v>
  </separator>
  <separator name="response functions" >
   <i type="logical" name="LADDER"> F  </i>
   <i type="logical" name="LRPAFORCE"> F  </i>
   <i type="logical" name="LFXC"> F  </i>
   <i type="logical" name="LHARTREE"> T  </i>
   <i type="int" name="IBSE">     0</i>
   <v type="int" name="KPOINT">    -1     0     0     0</v>
   <i type="logical" name="LTCTE"> F  </i>
   <i type="logical" name="LTETE"> F  </i>
   <i type="logical" name="LTRIPLET"> F  </i>
   <i type="logical" name="LFXCEPS"> F  </i>
   <i type="logical" name="LFXHEG"> F  </i>
   <i type="int" name="NATURALO">     2</i>
   <i type="logical" name="L2ORDER"> F  </i>
   <i type="logical" name="LMP2LT"> F  </i>
   <i type="logical" name="LUSEW"> F  </i>
   <i name="ENCUTGW">     -2.00000000</i>
   <i name="ENCUTGWSOFT">     -2.00000000</i>
   <i name="ENCUTLF">     -1.00000000</i>
   <i type="int" name="LMAXMP2">    -1</i>
   <i name="SCISSOR">      0.00000000</i>
   <i type="int" name="NOMEGA">     0</i>
   <i type="int" name="NOMEGAR">     0</i>
   <i type="int" name="NBANDSGW">    -1</i>
   <i type="int" name="NBANDSO">    -1</i>
   <i type="int" name="NBANDSV">    -1</i>
   <i type="int" name="NELM">   200</i>
   <i type="int" name="NELMHF">     1</i>
   <i type="int" name="DIM">     3</i>
   <i type="int" name="ANTIRES">     0</i>
   <i name="OMEGAMAX">    -30.00000000</i>
   <i name="OMEGAMIN">    -30.00000000</i>
   <i name="OMEGATL">   -200.00000000</i>
   <i type="int" name="OMEGAGRID">   140</i>
   <i name="CSHIFT">     -0.10000000</i>
   <i type="logical" name="SELFENERGY"> F  </i>
   <i type="logical" name="LSPECTRAL"> F  </i>
   <i type="logical" name="LSPECTRALGW"> F  </i>
   <i type="logical" name="LSINGLES"> F  </i>
   <i type="logical" name="LFERMIGW"> F  </i>
   <i type="logical" name="ODDONLYGW"> F  </i>
   <i type="logical" name="EVENONLYGW"> F  </i>
   <i type="int" name="NKREDLFX">     1</i>
   <i type="int" name="NKREDLFY">     1</i>
   <i type="int" name="NKREDLFZ">     1</i>
   <i type="int" name="MAXMEM">  2800</i>
   <i type="int" name="TELESCOPE">     0</i>
   <i type="int" name="TAUPAR">     1</i>
   <i type="int" name="OMEGAPAR">    -1</i>
   <i name="LAMBDA">      1.00000000</i>
  </separator>
  <separator name="External order field" >
   <i name="OFIELD_KAPPA">      0.00000000</i>
   <v name="OFIELD_K">      0.00000000      0.00000000      0.00000000</v>
   <i name="OFIELD_Q6_NEAR">      0.00000000</i>
   <i name="OFIELD_Q6_FAR">      0.00000000</i>
   <i name="OFIELD_A">      0.00000000</i>
  </separator>
  <separator name="solvation model" >
   <i type="logical" name="LSOL"> F  </i>
  </separator>
 </parameters>
 <atominfo>
  <atoms>      84 </atoms>
  <types>       4 </types>
  <array name="atoms" >
   <dimension dim="1">ion</dimension>
   <field type="string">element</field>
   <field type="int">atomtype</field>
   <set>
    <rc><c>C </c><c>   1</c></rc>
    <rc><c>C </c><c>   1</c></rc>
    <rc><c>C </c><c>   1</c></rc>
    <rc><c>C </c><c>   1</c></rc>
    <rc><c>C </c><c>   1</c></rc>
    <rc><c>C </c><c>   1</c></rc>
    <rc><c>C </c><c>   1</c></rc>
    <rc><c>C </c><c>   1</c></rc>
    <rc><c>C </c><c>   1</c></rc>
    <rc><c>C </c><c>   1</c></rc>
    <rc><c>C </c><c>   1</c></rc>
    <rc><c>C </c><c>   1</c></rc>
    <rc><c>C </c><c>   1</c></rc>
    <rc><c>C </c><c>   1</c></rc>
    <rc><c>C </c><c>   1</c></rc>
    <rc><c>C </c><c>   1</c></rc>
    <rc><c>C </c><c>   1</c></rc>
    <rc><c>C </c><c>   1</c></rc>
    <rc><c>C </c><c>   1</c></rc>
    <rc><c>C </c><c>   1</c></rc>
    <rc><c>C </c><c>   1</c></rc>
    <rc><c>C </c><c>   1</c></rc>
    <rc><c>C </c><c>   1</c></rc>
    <rc><c>C </c><c>   1</c></rc>
    <rc><c>C </c><c>   1</c></rc>
    <rc><c>C </c><c>   1</c></rc>
    <rc><c>C </c><c>   1</c></rc>
    <rc><c>C </c><c>   1</c></rc>
    <rc><c>C </c><c>   1</c></rc>
    <rc><c>C </c><c>   1</c></rc>
    <rc><c>C </c><c>   1</c></rc>
    <rc><c>C </c><c>   1</c></rc>
    <rc><c>C </c><c>   1</c></rc>
    <rc><c>C </c><c>   1</c></rc>
    <rc><c>C </c><c>   1</c></rc>
    <rc><c>C </c><c>   1</c></rc>
    <rc><c>C </c><c>   1</c></rc>
    <rc><c>C </c><c>   1</c></rc>
    <rc><c>C </c><c>   1</c></rc>
    <rc><c>C </c><c>   1</c></rc>
    <rc><c>C </c><c>   1</c></rc>
    <rc><c>C </c><c>   1</c></rc>
    <rc><c>C </c><c>   1</c></rc>
    <rc><c>C </c><c>   1</c></rc>
    <rc><c>C </c><c>   1</c></rc>
    <rc><c>C </c><c>   1</c></rc>
    <rc><c>C </c><c>   1</c></rc>
    <rc><c>C </c><c>   1</c></rc>
    <rc><c>N </c><c>   2</c></rc>
    <rc><c>N </c><c>   2</c></rc>
    <rc><c>N </c><c>   2</c></rc>
    <rc><c>O </c><c>   3</c></rc>
    <rc><c>O </c><c>   3</c></rc>
    <rc><c>O </c><c>   3</c></rc>
    <rc><c>O </c><c>   3</c></rc>
    <rc><c>O </c><c>   3</c></rc>
    <rc><c>O </c><c>   3</c></rc>
    <rc><c>H </c><c>   4</c></rc>
    <rc><c>H </c><c>   4</c></rc>
    <rc><c>H </c><c>   4</c></rc>
    <rc><c>H </c><c>   4</c></rc>
    <rc><c>H </c><c>   4</c></rc>
    <rc><c>H </c><c>   4</c></rc>
    <rc><c>H </c><c>   4</c></rc>
    <rc><c>H </c><c>   4</c></rc>
    <rc><c>H </c><c>   4</c></rc>
    <rc><c>H </c><c>   4</c></rc>
    <rc><c>H </c><c>   4</c></rc>
    <rc><c>H </c><c>   4</c></rc>
    <rc><c>H </c><c>   4</c></rc>
    <rc><c>H </c><c>   4</c></rc>
    <rc><c>H </c><c>   4</c></rc>
    <rc><c>H </c><c>   4</c></rc>
    <rc><c>H </c><c>   4</c></rc>
    <rc><c>H </c><c>   4</c></rc>
    <rc><c>H </c><c>   4</c></rc>
    <rc><c>H </c><c>   4</c></rc>
    <rc><c>H </c><c>   4</c></rc>
    <rc><c>H </c><c>   4</c></rc>
    <rc><c>H </c><c>   4</c></rc>
    <rc><c>H </c><c>   4</c></rc>
    <rc><c>H </c><c>   4</c></rc>
    <rc><c>H </c><c>   4</c></rc>
    <rc><c>H </c><c>   4</c></rc>
   </set>
  </array>
  <array name="atomtypes" >
   <dimension dim="1">type</dimension>
   <field type="int">atomspertype</field>
   <field type="string">element</field>
   <field>mass</field>
   <field>valence</field>
   <field type="string">pseudopotential</field>
   <set>
    <rc><c>  48</c><c>C </c><c>     12.01100000</c><c>      4.00000000</c><c>  PAW_PBE C 08Apr2002                   </c></rc>
    <rc><c>   3</c><c>N </c><c>     14.00100000</c><c>      5.00000000</c><c>  PAW_PBE N 08Apr2002                   </c></rc>
    <rc><c>   6</c><c>O </c><c>     16.00000000</c><c>      6.00000000</c><c>  PAW_PBE O 08Apr2002                   </c></rc>
    <rc><c>  27</c><c>H </c><c>      1.00000000</c><c>      1.00000000</c><c>  PAW_PBE H 15Jun2001                   </c></rc>
   </set>
  </array>
 </atominfo>
 <structure name="initialpos" >
  <crystal>
   <varray name="basis" >
    <v>      22.39849281       0.02405983       0.00000000 </v>
    <v>     -11.17817376      19.38227077       0.00000000 </v>
    <v>       0.00000000       0.00000000      20.00000000 </v>
   </varray>
   <i name="volume">   8688.05194930 </i>
   <varray name="rec_basis" >
    <v>       0.04461822       0.02573229       0.00000000 </v>
    <v>      -0.00005539       0.05156160       0.00000000 </v>
    <v>       0.00000000       0.00000000       0.05000000 </v>
   </varray>
  </crystal>
  <varray name="positions" >
   <v>       0.20215183       0.59723205       0.50705547 </v>
   <v>       0.16094892       0.58876274       0.56313185 </v>
   <v>       0.08936255       0.55418795       0.56041069 </v>
   <v>       0.05535917       0.52535768       0.50006778 </v>
   <v>       0.09559690       0.53435386       0.44299461 </v>
   <v>       0.16733562       0.56954758       0.44666431 </v>
   <v>       0.27865510       0.63547639       0.51027780 </v>
   <v>       0.31524571       0.59987873       0.50855784 </v>
   <v>       0.38679345       0.63533352       0.51669029 </v>
   <v>       0.42200930       0.70714894       0.52429052 </v>
   <v>       0.38613035       0.74343552       0.52357007 </v>
   <v>       0.31437029       0.70728624       0.51687722 </v>
   <v>       0.42407848       0.82010842       0.52600965 </v>
   <v>       0.45419243       0.85937216       0.58377711 </v>
   <v>       0.42505959       0.59693553       0.51640448 </v>
   <v>       0.45845343       0.58999189       0.57281962 </v>
   <v>       0.43344918       0.85707237       0.46650643 </v>
   <v>       0.43116430       0.56702931       0.45695538 </v>
   <v>       0.49125546       0.93120572       0.58318613 </v>
   <v>       0.49935465       0.96723737       0.52354104 </v>
   <v>       0.53788465       0.04347444       0.52213266 </v>
   <v>       0.52529625       0.08211707       0.56966690 </v>
   <v>       0.56074536       0.15391430       0.56717993 </v>
   <v>       0.49537061       0.55509887       0.57108268 </v>
   <v>       0.49993690       0.52456673       0.51161888 </v>
   <v>       0.53763649       0.48597754       0.50997495 </v>
   <v>       0.52679487       0.43728959       0.55978649 </v>
   <v>       0.56198959       0.40066554       0.55831053 </v>
   <v>       0.47009781       0.92883997       0.46500969 </v>
   <v>       0.58785389       0.07894936       0.47271856 </v>
   <v>       0.46764761       0.53166791       0.45433123 </v>
   <v>       0.58524637       0.49721438       0.45898167 </v>
   <v>       0.75709092       0.37390283       0.49999959 </v>
   <v>       0.72022517       0.40939047       0.49838968 </v>
   <v>       0.64852365       0.37435832       0.50720749 </v>
   <v>       0.61354727       0.30258611       0.51597033 </v>
   <v>       0.64894596       0.26564716       0.51442523 </v>
   <v>       0.72078304       0.30197840       0.50718190 </v>
   <v>       0.61107571       0.18941785       0.51806939 </v>
   <v>       0.61034056       0.41254275       0.50786611 </v>
   <v>       0.97919301       0.48605132       0.49807160 </v>
   <v>       0.94240294       0.43534188       0.54654771 </v>
   <v>       0.87074830       0.39835713       0.54591147 </v>
   <v>       0.83332127       0.41186049       0.49773416 </v>
   <v>       0.62436725       0.15069606       0.47121195 </v>
   <v>       0.62155711       0.46165281       0.45839251 </v>
   <v>       0.87010406       0.46267436       0.44935936 </v>
   <v>       0.94191645       0.49861809       0.44900605 </v>
   <v>       0.19263203       0.61539385       0.62938909 </v>
   <v>       0.44682495       0.82542740       0.64925923 </v>
   <v>       0.45430462       0.61845924       0.63842387 </v>
   <v>       0.16930079       0.64608688       0.66248399 </v>
   <v>       0.23873364       0.60389222       0.64743824 </v>
   <v>       0.39158239       0.77242095       0.66100704 </v>
   <v>       0.39854991       0.61325629       0.65426284 </v>
   <v>       0.49650958       0.85343716       0.68818144 </v>
   <v>       0.50717099       0.64444493       0.67337983 </v>
   <v>       0.06049014       0.55043826       0.60559325 </v>
   <v>       0.07020174       0.51232299       0.39546153 </v>
   <v>       0.19775792       0.57611368       0.40182311 </v>
   <v>       0.28608632       0.73528549       0.51807185 </v>
   <v>       0.28744999       0.54379936       0.50451560 </v>
   <v>       0.41132033       0.82807075       0.42056739 </v>
   <v>       0.40668594       0.57229851       0.41191515 </v>
   <v>       0.47792105       0.73504413       0.53004946 </v>
   <v>       0.55754570       0.27473598       0.52081324 </v>
   <v>       0.48637993       0.05540691       0.60820747 </v>
   <v>       0.55001702       0.18308645       0.60429782 </v>
   <v>       0.51443241       0.95842127       0.62961432 </v>
   <v>       0.48962365       0.42748870       0.59954052 </v>
   <v>       0.55292560       0.36307077       0.59744895 </v>
   <v>       0.52101296       0.55269141       0.61645824 </v>
   <v>       0.47539137       0.95580393       0.41799994 </v>
   <v>       0.47035624       0.50817500       0.40745294 </v>
   <v>       0.74894539       0.27381637       0.50742111 </v>
   <v>       0.74811115       0.46549022       0.49397971 </v>
   <v>       0.97051819       0.42446220       0.58470759 </v>
   <v>       0.84302421       0.35939674       0.58416215 </v>
   <v>       0.66299112       0.17745459       0.43245656 </v>
   <v>       0.59883251       0.04982588       0.43575395 </v>
   <v>       0.65857987       0.47124924       0.41854987 </v>
   <v>       0.59477617       0.53524751       0.42016332 </v>
   <v>       0.84195756       0.47362384       0.41128270 </v>
   <v>       0.96959629       0.53811773       0.41116956 </v>
  </varray>
 </structure>
 <calculation>
  <scstep>
   <time name="dav">  136.35  137.53</time>
   <time name="total">  136.51  137.70</time>
   <energy>
    <i name="alphaZ">     39.00616327 </i>
    <i name="ewald">  30974.15741635 </i>
    <i name="hartreedc"> -39861.94026156 </i>
    <i name="XCdc">    960.19056596 </i>
    <i name="pawpsdc">  24526.74828414 </i>
    <i name="pawaedc"> -24575.71881612 </i>
    <i name="eentropy">     -0.00000000 </i>
    <i name="bandstr">  -3438.20319822 </i>
    <i name="atom">  10788.00100292 </i>
    <i name="e_fr_energy">   -587.75884328 </i>
    <i name="e_wo_entrp">   -587.75884328 </i>
    <i name="e_0_energy">   -587.75884328 </i>
   </energy>
  </scstep>
  <scstep>
   <time name="dav">  150.67  151.99</time>
   <time name="total">  150.68  151.99</time>
   <energy>
    <i name="e_fr_energy">   -588.36535696 </i>
    <i name="e_wo_entrp">   -588.36535696 </i>
    <i name="e_0_energy">   -588.36535696 </i>
   </energy>
  </scstep>
  <scstep>
   <time name="dav">  161.74  163.13</time>
   <time name="total">  161.75  163.14</time>
   <energy>
    <i name="e_fr_energy">   -588.38080177 </i>
    <i name="e_wo_entrp">   -588.38080177 </i>
    <i name="e_0_energy">   -588.38080177 </i>
   </energy>
  </scstep>
  <scstep>
   <time name="dav">  152.55  153.86</time>
   <time name="total">  152.55  153.86</time>
   <energy>
    <i name="e_fr_energy">   -588.38116750 </i>
    <i name="e_wo_entrp">   -588.38116750 </i>
    <i name="e_0_energy">   -588.38116750 </i>
   </energy>
  </scstep>
  <scstep>
   <time name="dav">  144.72  145.96</time>
   <time name="total">  144.72  145.97</time>
   <energy>
    <i name="e_fr_energy">   -588.38118662 </i>
    <i name="e_wo_entrp">   -588.38118662 </i>
    <i name="e_0_energy">   -588.38118662 </i>
   </energy>
  </scstep>
  <scstep>
   <time name="dav">  120.77  121.81</time>
   <time name="total">  120.78  121.82</time>
   <energy>
    <i name="alphaZ">     39.00616327 </i>
    <i name="ewald">  30974.15741635 </i>
    <i name="hartreedc"> -39861.94026156 </i>
    <i name="XCdc">    960.19056596 </i>
    <i name="pawpsdc">  24526.74828414 </i>
    <i name="pawaedc"> -24575.71881612 </i>
    <i name="eentropy">     -0.00000000 </i>
    <i name="bandstr">  -3438.82554246 </i>
    <i name="atom">  10788.00100292 </i>
    <i name="e_fr_energy">   -588.38118752 </i>
    <i name="e_wo_entrp">   -588.38118752 </i>
    <i name="e_0_energy">   -588.38118752 </i>
   </energy>
  </scstep>
  <structure>
   <crystal>
    <varray name="basis" >
     <v>      22.39849281       0.02405983       0.00000000 </v>
     <v>     -11.17817376      19.38227077       0.00000000 </v>
     <v>       0.00000000       0.00000000      20.00000000 </v>
    </varray>
    <i name="volume">   8688.05194930 </i>
    <varray name="rec_basis" >
     <v>       0.04461822       0.02573229       0.00000000 </v>
     <v>      -0.00005539       0.05156160       0.00000000 </v>
     <v>       0.00000000       0.00000000       0.05000000 </v>
    </varray>
   </crystal>
   <varray name="positions" >
    <v>       0.20215183       0.59723205       0.50705547 </v>
    <v>       0.16094892       0.58876274       0.56313185 </v>
    <v>       0.08936255       0.55418795       0.56041069 </v>
    <v>       0.05535917       0.52535768       0.50006778 </v>
    <v>       0.09559690       0.53435386       0.44299461 </v>
    <v>       0.16733562       0.56954758       0.44666431 </v>
    <v>       0.27865510       0.63547639       0.51027780 </v>
    <v>       0.31524571       0.59987873       0.50855784 </v>
    <v>       0.38679345       0.63533352       0.51669029 </v>
    <v>       0.42200930       0.70714894       0.52429052 </v>
    <v>       0.38613035       0.74343552       0.52357007 </v>
    <v>       0.31437029       0.70728624       0.51687722 </v>
    <v>       0.42407848       0.82010842       0.52600965 </v>
    <v>       0.45419243       0.85937216       0.58377711 </v>
    <v>       0.42505959       0.59693553       0.51640448 </v>
    <v>       0.45845343       0.58999189       0.57281962 </v>
    <v>       0.43344918       0.85707237       0.46650643 </v>
    <v>       0.43116430       0.56702931       0.45695538 </v>
    <v>       0.49125546       0.93120572       0.58318613 </v>
    <v>       0.49935465       0.96723737       0.52354104 </v>
    <v>       0.53788465       0.04347444       0.52213266 </v>
    <v>       0.52529625       0.08211707       0.56966690 </v>
    <v>       0.56074536       0.15391430       0.56717993 </v>
    <v>       0.49537061       0.55509887       0.57108268 </v>
    <v>       0.49993690       0.52456673       0.51161888 </v>
    <v>       0.53763649       0.48597754       0.50997495 </v>
    <v>       0.52679487       0.43728959       0.55978649 </v>
    <v>       0.56198959       0.40066554       0.55831053 </v>
    <v>       0.47009781       0.92883997       0.46500969 </v>
    <v>       0.58785389       0.07894936       0.47271856 </v>
    <v>       0.46764761       0.53166791       0.45433123 </v>
    <v>       0.58524637       0.49721438       0.45898167 </v>
    <v>       0.75709092       0.37390283       0.49999959 </v>
    <v>       0.72022517       0.40939047       0.49838968 </v>
    <v>       0.64852365       0.37435832       0.50720749 </v>
    <v>       0.61354727       0.30258611       0.51597033 </v>
    <v>       0.64894596       0.26564716       0.51442523 </v>
    <v>       0.72078304       0.30197840       0.50718190 </v>
    <v>       0.61107571       0.18941785       0.51806939 </v>
    <v>       0.61034056       0.41254275       0.50786611 </v>
    <v>       0.97919301       0.48605132       0.49807160 </v>
    <v>       0.94240294       0.43534188       0.54654771 </v>
    <v>       0.87074830       0.39835713       0.54591147 </v>
    <v>       0.83332127       0.41186049       0.49773416 </v>
    <v>       0.62436725       0.15069606       0.47121195 </v>
    <v>       0.62155711       0.46165281       0.45839251 </v>
    <v>       0.87010406       0.46267436       0.44935936 </v>
    <v>       0.94191645       0.49861809       0.44900605 </v>
    <v>       0.19263203       0.61539385       0.62938909 </v>
    <v>       0.44682495       0.82542740       0.64925923 </v>
    <v>       0.45430462       0.61845924       0.63842387 </v>
    <v>       0.16930079       0.64608688       0.66248399 </v>
    <v>       0.23873364       0.60389222       0.64743824 </v>
    <v>       0.39158239       0.77242095       0.66100704 </v>
    <v>       0.39854991       0.61325629       0.65426284 </v>
    <v>       0.49650958       0.85343716       0.68818144 </v>
    <v>       0.50717099       0.64444493       0.67337983 </v>
    <v>       0.06049014       0.55043826       0.60559325 </v>
    <v>       0.07020174       0.51232299       0.39546153 </v>
    <v>       0.19775792       0.57611368       0.40182311 </v>
    <v>       0.28608632       0.73528549       0.51807185 </v>
    <v>       0.28744999       0.54379936       0.50451560 </v>
    <v>       0.41132033       0.82807075       0.42056739 </v>
    <v>       0.40668594       0.57229851       0.41191515 </v>
    <v>       0.47792105       0.73504413       0.53004946 </v>
    <v>       0.55754570       0.27473598       0.52081324 </v>
    <v>       0.48637993       0.05540691       0.60820747 </v>
    <v>       0.55001702       0.18308645       0.60429782 </v>
    <v>       0.51443241       0.95842127       0.62961432 </v>
    <v>       0.48962365       0.42748870       0.59954052 </v>
    <v>       0.55292560       0.36307077       0.59744895 </v>
    <v>       0.52101296       0.55269141       0.61645824 </v>
    <v>       0.47539137       0.95580393       0.41799994 </v>
    <v>       0.47035624       0.50817500       0.40745294 </v>
    <v>       0.74894539       0.27381637       0.50742111 </v>
    <v>       0.74811115       0.46549022       0.49397971 </v>
    <v>       0.97051819       0.42446220       0.58470759 </v>
    <v>       0.84302421       0.35939674       0.58416215 </v>
    <v>       0.66299112       0.17745459       0.43245656 </v>
    <v>       0.59883251       0.04982588       0.43575395 </v>
    <v>       0.65857987       0.47124924       0.41854987 </v>
    <v>       0.59477617       0.53524751       0.42016332 </v>
    <v>       0.84195756       0.47362384       0.41128270 </v>
    <v>       0.96959629       0.53811773       0.41116956 </v>
   </varray>
  </structure>
  <varray name="forces" >
   <v>      -0.00148701       0.00120501       0.00045690 </v>
   <v>      -0.00277579      -0.00260374      -0.00139596 </v>
   <v>       0.00220296       0.00130836       0.00209638 </v>
   <v>      -0.00128420      -0.00157039      -0.00248347 </v>
   <v>       0.00351273       0.00354167      -0.00255763 </v>
   <v>      -0.00079818      -0.00074372       0.00244252 </v>
   <v>       0.00162532       0.00000787       0.00063141 </v>
   <v>       0.00045217      -0.00040214       0.00068004 </v>
   <v>      -0.00342301      -0.00017542       0.00090900 </v>
   <v>       0.00243648       0.00249237      -0.00068733 </v>
   <v>      -0.00257062      -0.00148711      -0.00006258 </v>
   <v>       0.00146437       0.00195812       0.00006738 </v>
   <v>      -0.00024137      -0.00242151       0.00216289 </v>
   <v>      -0.00272737       0.00115111      -0.00002908 </v>
   <v>       0.00023757      -0.00177337      -0.00058354 </v>
   <v>      -0.00025261      -0.00300821       0.00099648 </v>
   <v>      -0.00044179      -0.00329170      -0.00064079 </v>
   <v>      -0.00477621       0.00226848       0.00033909 </v>
   <v>      -0.00109572       0.00309216       0.00264295 </v>
   <v>       0.00027678      -0.00244732       0.00087127 </v>
   <v>       0.00147534       0.00197453       0.00060704 </v>
   <v>       0.00138119       0.00000895       0.00187367 </v>
   <v>       0.00262923      -0.00225568      -0.00241372 </v>
   <v>      -0.00159808      -0.00009289      -0.00186901 </v>
   <v>       0.00069383       0.00092544       0.00303307 </v>
   <v>       0.00071232      -0.00065891       0.00100666 </v>
   <v>      -0.00030130       0.00277218      -0.00163751 </v>
   <v>      -0.00019842       0.00136404      -0.00096562 </v>
   <v>       0.00234212       0.00307042       0.00009496 </v>
   <v>       0.00074135      -0.00378336       0.00064436 </v>
   <v>       0.00223068      -0.00027462      -0.00451365 </v>
   <v>       0.00099112       0.00104076      -0.00243248 </v>
   <v>       0.00334499       0.00588928       0.00023672 </v>
   <v>      -0.00114573      -0.00210141      -0.00055777 </v>
   <v>      -0.00001981       0.00309663      -0.00222322 </v>
   <v>      -0.00301714      -0.00055963      -0.00161671 </v>
   <v>       0.00208489      -0.00303410      -0.00198428 </v>
   <v>      -0.00235635      -0.00212674      -0.00024863 </v>
   <v>      -0.00113610       0.00143248       0.00196420 </v>
   <v>       0.00140773       0.00022213      -0.00149906 </v>
   <v>      -0.00111451       0.00134258      -0.00142563 </v>
   <v>      -0.00334572      -0.00116714      -0.00021440 </v>
   <v>       0.00127174       0.00232294      -0.00429774 </v>
   <v>       0.00144629      -0.00220409      -0.00026267 </v>
   <v>       0.00034357       0.00121823      -0.00071073 </v>
   <v>      -0.00034893      -0.00142690       0.00134561 </v>
   <v>       0.00273337       0.00078658      -0.00209092 </v>
   <v>       0.00095424       0.00072516      -0.00002212 </v>
   <v>       0.00735773       0.00022491       0.00277127 </v>
   <v>       0.00466387       0.00238171       0.00469498 </v>
   <v>      -0.00607302      -0.00250982       0.00285952 </v>
   <v>      -0.00637089      -0.00171239       0.00086306 </v>
   <v>      -0.00447090       0.00204682      -0.00076417 </v>
   <v>       0.00207880      -0.00319300      -0.00073159 </v>
   <v>       0.00413849      -0.00370397      -0.00177288 </v>
   <v>      -0.00364678       0.00040370      -0.00025591 </v>
   <v>      -0.00206845      -0.00335210       0.00313068 </v>
   <v>       0.00088292       0.00027632      -0.00118884 </v>
   <v>      -0.00027533       0.00020015      -0.00111207 </v>
   <v>      -0.00020003       0.00058646      -0.00040452 </v>
   <v>      -0.00111426       0.00100911       0.00078261 </v>
   <v>       0.00006359       0.00120114       0.00115579 </v>
   <v>      -0.00066499       0.00091740       0.00093206 </v>
   <v>      -0.00096185       0.00017964       0.00038560 </v>
   <v>      -0.00048124      -0.00034620       0.00321613 </v>
   <v>       0.00096875      -0.00005834      -0.00114461 </v>
   <v>       0.00182613       0.00200499       0.00111150 </v>
   <v>       0.00060716       0.00210268       0.00135938 </v>
   <v>      -0.00196054      -0.00062276      -0.00099900 </v>
   <v>      -0.00054021       0.00121907       0.00075753 </v>
   <v>       0.00177402       0.00065100       0.00040677 </v>
   <v>       0.00116233      -0.00057489       0.00042575 </v>
   <v>       0.00064260      -0.00031385       0.00069701 </v>
   <v>      -0.00208828       0.00059329       0.00195809 </v>
   <v>       0.00244975      -0.00124936      -0.00056709 </v>
   <v>      -0.00003595       0.00017628      -0.00107967 </v>
   <v>       0.00124996      -0.00094404       0.00085496 </v>
   <v>      -0.00100485      -0.00029335      -0.00110648 </v>
   <v>       0.00062761      -0.00149204       0.00020661 </v>
   <v>      -0.00028034      -0.00137800       0.00148404 </v>
   <v>       0.00091418      -0.00017668      -0.00110282 </v>
   <v>      -0.00033353       0.00071724      -0.00167322 </v>
   <v>      -0.00081644      -0.00037839      -0.00104188 </v>
   <v>      -0.00055642      -0.00020012      -0.00078492 </v>
  </varray>
  <varray name="stress" >
   <v>      -0.00231277      -0.00250520      -0.01093554 </v>
   <v>      -0.00250520       0.00780900      -0.00606339 </v>
   <v>      -0.01093554      -0.00606339      -0.19814423 </v>
  </varray>
  <energy>
   <i name="e_fr_energy">   -590.20913113 </i>
   <i name="e_wo_entrp">   -590.20913113 </i>
   <i name="e_0_energy">     -0.00000000 </i>
  </energy>
  <time name="totalsc">  987.63  996.51</time>
  <eigenvalues>
   <array>
    <dimension dim="1">band</dimension>
    <dimension dim="2">kpoint</dimension>
    <dimension dim="3">spin</dimension>
    <field>eigene</field>
    <field>occ</field>
    <set>
     <set comment="spin 1">
      <set comment="kpoint 1">
       <r>  -30.1859    1.0000 </r>
       <r>  -30.1655    1.0000 </r>
       <r>  -30.1453    1.0000 </r>
       <r>  -25.8213    1.0000 </r>
       <r>  -25.7930    1.0000 </r>
       <r>  -25.7718    1.0000 </r>
       <r>  -22.1163    1.0000 </r>
       <r>  -21.9642    1.0000 </r>
       <r>  -21.9604    1.0000 </r>
       <r>  -21.7337    1.0000 </r>
       <r>  -21.3225    1.0000 </r>
       <r>  -21.3194    1.0000 </r>
       <r>  -21.2988    1.0000 </r>
       <r>  -20.8233    1.0000 </r>
       <r>  -20.0834    1.0000 </r>
       <r>  -20.0736    1.0000 </r>
       <r>  -19.6650    1.0000 </r>
       <r>  -19.4672    1.0000 </r>
       <r>  -19.4354    1.0000 </r>
       <r>  -19.2039    1.0000 </r>
       <r>  -19.1899    1.0000 </r>
       <r>  -19.0695    1.0000 </r>
       <r>  -18.3824    1.0000 </r>
       <r>  -18.3611    1.0000 </r>
       <r>  -18.3526    1.0000 </r>
       <r>  -18.1614    1.0000 </r>
       <r>  -18.1523    1.0000 </r>
       <r>  -17.9226    1.0000 </r>
       <r>  -17.3761    1.0000 </r>
       <r>  -17.3625    1.0000 </r>
       <r>  -16.8934    1.0000 </r>
       <r>  -16.8216    1.0000 </r>
       <r>  -16.7955    1.0000 </r>
       <r>  -15.9127    1.0000 </r>
       <r>  -15.8428    1.0000 </r>
       <r>  -15.6938    1.0000 </r>
       <r>  -15.2097    1.0000 </r>
       <r>  -15.1643    1.0000 </r>
       <r>  -14.9712    1.0000 </r>
       <r>  -14.9404    1.0000 </r>
       <r>  -14.8420    1.0000 </r>
       <r>  -14.6307    1.0000 </r>
       <r>  -14.5487    1.0000 </r>
       <r>  -14.4873    1.0000 </r>
       <r>  -14.0376    1.0000 </r>
       <r>  -14.0259    1.0000 </r>
       <r>  -13.9876    1.0000 </r>
       <r>  -13.6874    1.0000 </r>
       <r>  -13.6576    1.0000 </r>
       <r>  -13.3330    1.0000 </r>
       <r>  -12.9865    1.0000 </r>
       <r>  -12.9789    1.0000 </r>
       <r>  -12.9782    1.0000 </r>
       <r>  -12.6581    1.0000 </r>
       <r>  -12.6114    1.0000 </r>
       <r>  -12.5695    1.0000 </r>
       <r>  -12.4446    1.0000 </r>
       <r>  -12.0541    1.0000 </r>
       <r>  -12.0372    1.0000 </r>
       <r>  -11.9834    1.0000 </r>
       <r>  -11.9324    1.0000 </r>
       <r>  -11.9107    1.0000 </r>
       <r>  -11.8711    1.0000 </r>
       <r>  -11.6841    1.0000 </r>
       <r>  -11.6294    1.0000 </r>
       <r>  -11.4750    1.0000 </r>
       <r>  -11.4415    1.0000 </r>
       <r>  -11.4141    1.0000 </r>
       <r>  -11.3720    1.0000 </r>
       <r>  -11.3523    1.0000 </r>
       <r>  -11.3139    1.0000 </r>
       <r>  -11.1079    1.0000 </r>
       <r>  -10.9417    1.0000 </r>
       <r>  -10.9283    1.0000 </r>
       <r>  -10.8445    1.0000 </r>
       <r>  -10.7899    1.0000 </r>
       <r>  -10.5204    1.0000 </r>
       <r>  -10.5160    1.0000 </r>
       <r>  -10.5138    1.0000 </r>
       <r>  -10.5052    1.0000 </r>
       <r>  -10.4041    1.0000 </r>
       <r>  -10.1267    1.0000 </r>
       <r>  -10.1105    1.0000 </r>
       <r>  -10.0541    1.0000 </r>
       <r>  -10.0430    1.0000 </r>
       <r>  -10.0284    1.0000 </r>
       <r>   -9.5787    1.0000 </r>
       <r>   -9.4987    1.0000 </r>
       <r>   -9.4148    1.0000 </r>
       <r>   -9.4012    1.0000 </r>
       <r>   -9.3837    1.0000 </r>
       <r>   -9.3233    1.0000 </r>
       <r>   -9.2042    1.0000 </r>
       <r>   -9.0564    1.0000 </r>
       <r>   -9.0219    1.0000 </r>
       <r>   -8.9204    1.0000 </r>
       <r>   -8.8850    1.0000 </r>
       <r>   -8.7657    1.0000 </r>
       <r>   -8.6989    1.0000 </r>
       <r>   -8.6388    1.0000 </r>
       <r>   -8.6042    1.0000 </r>
       <r>   -8.5124    1.0000 </r>
       <r>   -8.3283    1.0000 </r>
       <r>   -8.2778    1.0000 </r>
       <r>   -8.2477    1.0000 </r>
       <r>   -8.0712    1.0000 </r>
       <r>   -8.0157    1.0000 </r>
       <r>   -7.9871    1.0000 </r>
       <r>   -7.8073    1.0000 </r>
       <r>   -7.7698    1.0000 </r>
       <r>   -7.1494    1.0000 </r>
       <r>   -7.0967    1.0000 </r>
       <r>   -7.0564    1.0000 </r>
       <r>   -7.0461    1.0000 </r>
       <r>   -6.9942    1.0000 </r>
       <r>   -6.9002    1.0000 </r>
       <r>   -6.8084    1.0000 </r>
       <r>   -6.7836    1.0000 </r>
       <r>   -6.7137    1.0000 </r>
       <r>   -6.6878    1.0000 </r>
       <r>   -6.6432    1.0000 </r>
       <r>   -6.5313    1.0000 </r>
       <r>   -6.3497    1.0000 </r>
       <r>   -6.2863    1.0000 </r>
       <r>   -6.2481    1.0000 </r>
       <r>   -6.2448    1.0000 </r>
       <r>   -6.2418    1.0000 </r>
       <r>   -6.0107    1.0000 </r>
       <r>   -5.9632    1.0000 </r>
       <r>   -5.9401    1.0000 </r>
       <r>   -5.8334    1.0000 </r>
       <r>   -5.7539    1.0000 </r>
       <r>   -5.6863    1.0000 </r>
       <r>   -5.3933    1.0000 </r>
       <r>   -5.3410    1.0000 </r>
       <r>   -2.8276    0.0000 </r>
       <r>   -2.7598    0.0000 </r>
       <r>   -2.7143    0.0000 </r>
       <r>   -1.9936    0.0000 </r>
       <r>   -1.9414    0.0000 </r>
       <r>   -1.7817    0.0000 </r>
       <r>   -1.4528    0.0000 </r>
       <r>   -1.3780    0.0000 </r>
       <r>   -1.2367    0.0000 </r>
       <r>   -1.1863    0.0000 </r>
       <r>   -1.1781    0.0000 </r>
       <r>   -1.1536    0.0000 </r>
       <r>   -1.1298    0.0000 </r>
       <r>   -1.0346    0.0000 </r>
       <r>   -0.8700    0.0000 </r>
       <r>   -0.7195    0.0000 </r>
       <r>   -0.6818    0.0000 </r>
       <r>   -0.3377    0.0000 </r>
       <r>   -0.2570    0.0000 </r>
       <r>   -0.1132    0.0000 </r>
       <r>   -0.0968    0.0000 </r>
       <r>   -0.0427    0.0000 </r>
       <r>   -0.0159    0.0000 </r>
       <r>    0.1115    0.0000 </r>
       <r>    0.2294    0.0000 </r>
       <r>    0.2758    0.0000 </r>
       <r>    0.3977    0.0000 </r>
       <r>    0.4330    0.0000 </r>
       <r>    0.4470    0.0000 </r>
       <r>    0.6398    0.0000 </r>
       <r>    0.6897    0.0000 </r>
       <r>    0.7344    0.0000 </r>
       <r>    0.7575    0.0000 </r>
       <r>    0.7827    0.0000 </r>
       <r>    0.7976    0.0000 </r>
       <r>    0.8167    0.0000 </r>
       <r>    0.8436    0.0000 </r>
       <r>    0.8989    0.0000 </r>
       <r>    0.9529    0.0000 </r>
       <r>    0.9830    0.0000 </r>
       <r>    1.0383    0.0000 </r>
       <r>    1.0411    0.0000 </r>
       <r>    1.0615    0.0000 </r>
       <r>    1.0886    0.0000 </r>
       <r>    1.1146    0.0000 </r>
       <r>    1.1358    0.0000 </r>
       <r>    1.1488    0.0000 </r>
       <r>    1.1917    0.0000 </r>
       <r>    1.2182    0.0000 </r>
       <r>    1.2414    0.0000 </r>
       <r>    1.2620    0.0000 </r>
       <r>    1.4067    0.0000 </r>
       <r>    1.4420    0.0000 </r>
       <r>    1.4990    0.0000 </r>
       <r>    1.5073    0.0000 </r>
       <r>    1.5299    0.0000 </r>
       <r>    1.5399    0.0000 </r>
      </set>
      <set comment="kpoint 2">
       <r>  -30.1859    1.0000 </r>
       <r>  -30.1655    1.0000 </r>
       <r>  -30.1453    1.0000 </r>
       <r>  -25.8213    1.0000 </r>
       <r>  -25.7930    1.0000 </r>
       <r>  -25.7718    1.0000 </r>
       <r>  -22.1163    1.0000 </r>
       <r>  -21.9643    1.0000 </r>
       <r>  -21.9604    1.0000 </r>
       <r>  -21.7335    1.0000 </r>
       <r>  -21.3263    1.0000 </r>
       <r>  -21.3212    1.0000 </r>
       <r>  -21.2930    1.0000 </r>
       <r>  -20.8239    1.0000 </r>
       <r>  -20.0828    1.0000 </r>
       <r>  -20.0735    1.0000 </r>
       <r>  -19.6656    1.0000 </r>
       <r>  -19.4672    1.0000 </r>
       <r>  -19.4354    1.0000 </r>
       <r>  -19.2060    1.0000 </r>
       <r>  -19.1903    1.0000 </r>
       <r>  -19.0662    1.0000 </r>
       <r>  -18.3825    1.0000 </r>
       <r>  -18.3611    1.0000 </r>
       <r>  -18.3526    1.0000 </r>
       <r>  -18.1630    1.0000 </r>
       <r>  -18.1533    1.0000 </r>
       <r>  -17.9201    1.0000 </r>
       <r>  -17.3765    1.0000 </r>
       <r>  -17.3625    1.0000 </r>
       <r>  -16.8934    1.0000 </r>
       <r>  -16.8217    1.0000 </r>
       <r>  -16.7955    1.0000 </r>
       <r>  -15.9126    1.0000 </r>
       <r>  -15.8428    1.0000 </r>
       <r>  -15.6940    1.0000 </r>
       <r>  -15.2101    1.0000 </r>
       <r>  -15.1641    1.0000 </r>
       <r>  -14.9711    1.0000 </r>
       <r>  -14.9403    1.0000 </r>
       <r>  -14.8414    1.0000 </r>
       <r>  -14.6307    1.0000 </r>
       <r>  -14.5487    1.0000 </r>
       <r>  -14.4875    1.0000 </r>
       <r>  -14.0497    1.0000 </r>
       <r>  -14.0161    1.0000 </r>
       <r>  -13.9854    1.0000 </r>
       <r>  -13.6874    1.0000 </r>
       <r>  -13.6578    1.0000 </r>
       <r>  -13.3330    1.0000 </r>
       <r>  -12.9922    1.0000 </r>
       <r>  -12.9841    1.0000 </r>
       <r>  -12.9670    1.0000 </r>
       <r>  -12.6581    1.0000 </r>
       <r>  -12.6114    1.0000 </r>
       <r>  -12.5695    1.0000 </r>
       <r>  -12.4448    1.0000 </r>
       <r>  -12.0541    1.0000 </r>
       <r>  -12.0371    1.0000 </r>
       <r>  -11.9834    1.0000 </r>
       <r>  -11.9325    1.0000 </r>
       <r>  -11.9106    1.0000 </r>
       <r>  -11.8713    1.0000 </r>
       <r>  -11.6842    1.0000 </r>
       <r>  -11.6295    1.0000 </r>
       <r>  -11.4767    1.0000 </r>
       <r>  -11.4416    1.0000 </r>
       <r>  -11.4145    1.0000 </r>
       <r>  -11.3722    1.0000 </r>
       <r>  -11.3508    1.0000 </r>
       <r>  -11.3125    1.0000 </r>
       <r>  -11.1081    1.0000 </r>
       <r>  -10.9418    1.0000 </r>
       <r>  -10.9283    1.0000 </r>
       <r>  -10.8443    1.0000 </r>
       <r>  -10.7898    1.0000 </r>
       <r>  -10.5204    1.0000 </r>
       <r>  -10.5160    1.0000 </r>
       <r>  -10.5137    1.0000 </r>
       <r>  -10.5052    1.0000 </r>
       <r>  -10.4039    1.0000 </r>
       <r>  -10.1268    1.0000 </r>
       <r>  -10.1109    1.0000 </r>
       <r>  -10.0542    1.0000 </r>
       <r>  -10.0431    1.0000 </r>
       <r>  -10.0283    1.0000 </r>
       <r>   -9.5785    1.0000 </r>
       <r>   -9.4986    1.0000 </r>
       <r>   -9.4152    1.0000 </r>
       <r>   -9.4012    1.0000 </r>
       <r>   -9.3837    1.0000 </r>
       <r>   -9.3234    1.0000 </r>
       <r>   -9.2038    1.0000 </r>
       <r>   -9.0562    1.0000 </r>
       <r>   -9.0217    1.0000 </r>
       <r>   -8.9206    1.0000 </r>
       <r>   -8.8852    1.0000 </r>
       <r>   -8.7661    1.0000 </r>
       <r>   -8.6989    1.0000 </r>
       <r>   -8.6387    1.0000 </r>
       <r>   -8.6040    1.0000 </r>
       <r>   -8.5126    1.0000 </r>
       <r>   -8.3305    1.0000 </r>
       <r>   -8.2759    1.0000 </r>
       <r>   -8.2470    1.0000 </r>
       <r>   -8.0713    1.0000 </r>
       <r>   -8.0159    1.0000 </r>
       <r>   -7.9873    1.0000 </r>
       <r>   -7.8073    1.0000 </r>
       <r>   -7.7698    1.0000 </r>
       <r>   -7.1493    1.0000 </r>
       <r>   -7.0967    1.0000 </r>
       <r>   -7.0564    1.0000 </r>
       <r>   -7.0460    1.0000 </r>
       <r>   -6.9942    1.0000 </r>
       <r>   -6.9004    1.0000 </r>
       <r>   -6.8084    1.0000 </r>
       <r>   -6.7836    1.0000 </r>
       <r>   -6.7142    1.0000 </r>
       <r>   -6.6879    1.0000 </r>
       <r>   -6.6425    1.0000 </r>
       <r>   -6.5313    1.0000 </r>
       <r>   -6.3495    1.0000 </r>
       <r>   -6.2862    1.0000 </r>
       <r>   -6.2481    1.0000 </r>
       <r>   -6.2448    1.0000 </r>
       <r>   -6.2418    1.0000 </r>
       <r>   -6.0108    1.0000 </r>
       <r>   -5.9641    1.0000 </r>
       <r>   -5.9396    1.0000 </r>
       <r>   -5.8335    1.0000 </r>
       <r>   -5.7539    1.0000 </r>
       <r>   -5.6859    1.0000 </r>
       <r>   -5.3934    1.0000 </r>
       <r>   -5.3411    1.0000 </r>
       <r>   -2.8276    0.0000 </r>
       <r>   -2.7598    0.0000 </r>
       <r>   -2.7143    0.0000 </r>
       <r>   -1.9934    0.0000 </r>
       <r>   -1.9414    0.0000 </r>
       <r>   -1.7823    0.0000 </r>
       <r>   -1.4523    0.0000 </r>
       <r>   -1.3777    0.0000 </r>
       <r>   -1.2367    0.0000 </r>
       <r>   -1.1864    0.0000 </r>
       <r>   -1.1782    0.0000 </r>
       <r>   -1.1537    0.0000 </r>
       <r>   -1.1297    0.0000 </r>
       <r>   -1.0349    0.0000 </r>
       <r>   -0.8705    0.0000 </r>
       <r>   -0.7203    0.0000 </r>
       <r>   -0.6804    0.0000 </r>
       <r>   -0.3376    0.0000 </r>
       <r>   -0.2570    0.0000 </r>
       <r>   -0.1135    0.0000 </r>
       <r>   -0.0982    0.0000 </r>
       <r>   -0.0426    0.0000 </r>
       <r>   -0.0149    0.0000 </r>
       <r>    0.1122    0.0000 </r>
       <r>    0.2295    0.0000 </r>
       <r>    0.2760    0.0000 </r>
       <r>    0.3974    0.0000 </r>
       <r>    0.4329    0.0000 </r>
       <r>    0.4475    0.0000 </r>
       <r>    0.6400    0.0000 </r>
       <r>    0.6897    0.0000 </r>
       <r>    0.7344    0.0000 </r>
       <r>    0.7571    0.0000 </r>
       <r>    0.7750    0.0000 </r>
       <r>    0.8005    0.0000 </r>
       <r>    0.8142    0.0000 </r>
       <r>    0.8477    0.0000 </r>
       <r>    0.8971    0.0000 </r>
       <r>    0.9563    0.0000 </r>
       <r>    0.9842    0.0000 </r>
       <r>    1.0365    0.0000 </r>
       <r>    1.0417    0.0000 </r>
       <r>    1.0621    0.0000 </r>
       <r>    1.0885    0.0000 </r>
       <r>    1.1151    0.0000 </r>
       <r>    1.1368    0.0000 </r>
       <r>    1.1493    0.0000 </r>
       <r>    1.1914    0.0000 </r>
       <r>    1.2161    0.0000 </r>
       <r>    1.2422    0.0000 </r>
       <r>    1.2655    0.0000 </r>
       <r>    1.4064    0.0000 </r>
       <r>    1.4409    0.0000 </r>
       <r>    1.4942    0.0000 </r>
       <r>    1.5081    0.0000 </r>
       <r>    1.5308    0.0000 </r>
       <r>    1.5410    0.0000 </r>
      </set>
      <set comment="kpoint 3">
       <r>  -30.1859    1.0000 </r>
       <r>  -30.1655    1.0000 </r>
       <r>  -30.1453    1.0000 </r>
       <r>  -25.8213    1.0000 </r>
       <r>  -25.7930    1.0000 </r>
       <r>  -25.7718    1.0000 </r>
       <r>  -22.1162    1.0000 </r>
       <r>  -21.9644    1.0000 </r>
       <r>  -21.9605    1.0000 </r>
       <r>  -21.7329    1.0000 </r>
       <r>  -21.3365    1.0000 </r>
       <r>  -21.3215    1.0000 </r>
       <r>  -21.2819    1.0000 </r>
       <r>  -20.8256    1.0000 </r>
       <r>  -20.0814    1.0000 </r>
       <r>  -20.0729    1.0000 </r>
       <r>  -19.6673    1.0000 </r>
       <r>  -19.4672    1.0000 </r>
       <r>  -19.4354    1.0000 </r>
       <r>  -19.2122    1.0000 </r>
       <r>  -19.1909    1.0000 </r>
       <r>  -19.0571    1.0000 </r>
       <r>  -18.3830    1.0000 </r>
       <r>  -18.3611    1.0000 </r>
       <r>  -18.3526    1.0000 </r>
       <r>  -18.1691    1.0000 </r>
       <r>  -18.1548    1.0000 </r>
       <r>  -17.9128    1.0000 </r>
       <r>  -17.3776    1.0000 </r>
       <r>  -17.3625    1.0000 </r>
       <r>  -16.8933    1.0000 </r>
       <r>  -16.8220    1.0000 </r>
       <r>  -16.7954    1.0000 </r>
       <r>  -15.9124    1.0000 </r>
       <r>  -15.8427    1.0000 </r>
       <r>  -15.6947    1.0000 </r>
       <r>  -15.2110    1.0000 </r>
       <r>  -15.1634    1.0000 </r>
       <r>  -14.9708    1.0000 </r>
       <r>  -14.9399    1.0000 </r>
       <r>  -14.8395    1.0000 </r>
       <r>  -14.6308    1.0000 </r>
       <r>  -14.5488    1.0000 </r>
       <r>  -14.4881    1.0000 </r>
       <r>  -14.0672    1.0000 </r>
       <r>  -14.0068    1.0000 </r>
       <r>  -13.9778    1.0000 </r>
       <r>  -13.6874    1.0000 </r>
       <r>  -13.6585    1.0000 </r>
       <r>  -13.3329    1.0000 </r>
       <r>  -13.0030    1.0000 </r>
       <r>  -12.9845    1.0000 </r>
       <r>  -12.9546    1.0000 </r>
       <r>  -12.6582    1.0000 </r>
       <r>  -12.6114    1.0000 </r>
       <r>  -12.5695    1.0000 </r>
       <r>  -12.4456    1.0000 </r>
       <r>  -12.0541    1.0000 </r>
       <r>  -12.0368    1.0000 </r>
       <r>  -11.9834    1.0000 </r>
       <r>  -11.9326    1.0000 </r>
       <r>  -11.9105    1.0000 </r>
       <r>  -11.8718    1.0000 </r>
       <r>  -11.6842    1.0000 </r>
       <r>  -11.6297    1.0000 </r>
       <r>  -11.4816    1.0000 </r>
       <r>  -11.4418    1.0000 </r>
       <r>  -11.4157    1.0000 </r>
       <r>  -11.3726    1.0000 </r>
       <r>  -11.3471    1.0000 </r>
       <r>  -11.3081    1.0000 </r>
       <r>  -11.1089    1.0000 </r>
       <r>  -10.9422    1.0000 </r>
       <r>  -10.9284    1.0000 </r>
       <r>  -10.8438    1.0000 </r>
       <r>  -10.7898    1.0000 </r>
       <r>  -10.5205    1.0000 </r>
       <r>  -10.5159    1.0000 </r>
       <r>  -10.5135    1.0000 </r>
       <r>  -10.5053    1.0000 </r>
       <r>  -10.4034    1.0000 </r>
       <r>  -10.1272    1.0000 </r>
       <r>  -10.1120    1.0000 </r>
       <r>  -10.0544    1.0000 </r>
       <r>  -10.0431    1.0000 </r>
       <r>  -10.0282    1.0000 </r>
       <r>   -9.5779    1.0000 </r>
       <r>   -9.4983    1.0000 </r>
       <r>   -9.4163    1.0000 </r>
       <r>   -9.4010    1.0000 </r>
       <r>   -9.3837    1.0000 </r>
       <r>   -9.3237    1.0000 </r>
       <r>   -9.2024    1.0000 </r>
       <r>   -9.0557    1.0000 </r>
       <r>   -9.0210    1.0000 </r>
       <r>   -8.9211    1.0000 </r>
       <r>   -8.8856    1.0000 </r>
       <r>   -8.7672    1.0000 </r>
       <r>   -8.6990    1.0000 </r>
       <r>   -8.6383    1.0000 </r>
       <r>   -8.6031    1.0000 </r>
       <r>   -8.5133    1.0000 </r>
       <r>   -8.3361    1.0000 </r>
       <r>   -8.2712    1.0000 </r>
       <r>   -8.2447    1.0000 </r>
       <r>   -8.0715    1.0000 </r>
       <r>   -8.0164    1.0000 </r>
       <r>   -7.9879    1.0000 </r>
       <r>   -7.8074    1.0000 </r>
       <r>   -7.7697    1.0000 </r>
       <r>   -7.1491    1.0000 </r>
       <r>   -7.0965    1.0000 </r>
       <r>   -7.0565    1.0000 </r>
       <r>   -7.0458    1.0000 </r>
       <r>   -6.9942    1.0000 </r>
       <r>   -6.9009    1.0000 </r>
       <r>   -6.8084    1.0000 </r>
       <r>   -6.7837    1.0000 </r>
       <r>   -6.7157    1.0000 </r>
       <r>   -6.6881    1.0000 </r>
       <r>   -6.6404    1.0000 </r>
       <r>   -6.5314    1.0000 </r>
       <r>   -6.3489    1.0000 </r>
       <r>   -6.2862    1.0000 </r>
       <r>   -6.2481    1.0000 </r>
       <r>   -6.2448    1.0000 </r>
       <r>   -6.2418    1.0000 </r>
       <r>   -6.0110    1.0000 </r>
       <r>   -5.9665    1.0000 </r>
       <r>   -5.9383    1.0000 </r>
       <r>   -5.8336    1.0000 </r>
       <r>   -5.7539    1.0000 </r>
       <r>   -5.6848    1.0000 </r>
       <r>   -5.3934    1.0000 </r>
       <r>   -5.3413    1.0000 </r>
       <r>   -2.8276    0.0000 </r>
       <r>   -2.7598    0.0000 </r>
       <r>   -2.7143    0.0000 </r>
       <r>   -1.9928    0.0000 </r>
       <r>   -1.9414    0.0000 </r>
       <r>   -1.7839    0.0000 </r>
       <r>   -1.4510    0.0000 </r>
       <r>   -1.3768    0.0000 </r>
       <r>   -1.2366    0.0000 </r>
       <r>   -1.1866    0.0000 </r>
       <r>   -1.1785    0.0000 </r>
       <r>   -1.1540    0.0000 </r>
       <r>   -1.1293    0.0000 </r>
       <r>   -1.0358    0.0000 </r>
       <r>   -0.8719    0.0000 </r>
       <r>   -0.7224    0.0000 </r>
       <r>   -0.6765    0.0000 </r>
       <r>   -0.3370    0.0000 </r>
       <r>   -0.2569    0.0000 </r>
       <r>   -0.1146    0.0000 </r>
       <r>   -0.1019    0.0000 </r>
       <r>   -0.0425    0.0000 </r>
       <r>   -0.0121    0.0000 </r>
       <r>    0.1143    0.0000 </r>
       <r>    0.2297    0.0000 </r>
       <r>    0.2766    0.0000 </r>
       <r>    0.3966    0.0000 </r>
       <r>    0.4325    0.0000 </r>
       <r>    0.4491    0.0000 </r>
       <r>    0.6406    0.0000 </r>
       <r>    0.6896    0.0000 </r>
       <r>    0.7340    0.0000 </r>
       <r>    0.7543    0.0000 </r>
       <r>    0.7632    0.0000 </r>
       <r>    0.7985    0.0000 </r>
       <r>    0.8120    0.0000 </r>
       <r>    0.8563    0.0000 </r>
       <r>    0.8939    0.0000 </r>
       <r>    0.9639    0.0000 </r>
       <r>    0.9883    0.0000 </r>
       <r>    1.0316    0.0000 </r>
       <r>    1.0442    0.0000 </r>
       <r>    1.0631    0.0000 </r>
       <r>    1.0880    0.0000 </r>
       <r>    1.1167    0.0000 </r>
       <r>    1.1398    0.0000 </r>
       <r>    1.1507    0.0000 </r>
       <r>    1.1893    0.0000 </r>
       <r>    1.2136    0.0000 </r>
       <r>    1.2440    0.0000 </r>
       <r>    1.2741    0.0000 </r>
       <r>    1.4054    0.0000 </r>
       <r>    1.4379    0.0000 </r>
       <r>    1.4840    0.0000 </r>
       <r>    1.5091    0.0000 </r>
       <r>    1.5324    0.0000 </r>
       <r>    1.5432    0.0000 </r>
      </set>
      <set comment="kpoint 4">
       <r>  -30.1859    1.0000 </r>
       <r>  -30.1655    1.0000 </r>
       <r>  -30.1453    1.0000 </r>
       <r>  -25.8213    1.0000 </r>
       <r>  -25.7930    1.0000 </r>
       <r>  -25.7718    1.0000 </r>
       <r>  -22.1162    1.0000 </r>
       <r>  -21.9647    1.0000 </r>
       <r>  -21.9606    1.0000 </r>
       <r>  -21.7318    1.0000 </r>
       <r>  -21.3477    1.0000 </r>
       <r>  -21.3215    1.0000 </r>
       <r>  -21.2697    1.0000 </r>
       <r>  -20.8284    1.0000 </r>
       <r>  -20.0795    1.0000 </r>
       <r>  -20.0713    1.0000 </r>
       <r>  -19.6702    1.0000 </r>
       <r>  -19.4672    1.0000 </r>
       <r>  -19.4353    1.0000 </r>
       <r>  -19.2214    1.0000 </r>
       <r>  -19.1914    1.0000 </r>
       <r>  -19.0436    1.0000 </r>
       <r>  -18.3838    1.0000 </r>
       <r>  -18.3611    1.0000 </r>
       <r>  -18.3526    1.0000 </r>
       <r>  -18.1800    1.0000 </r>
       <r>  -18.1554    1.0000 </r>
       <r>  -17.9017    1.0000 </r>
       <r>  -17.3795    1.0000 </r>
       <r>  -17.3625    1.0000 </r>
       <r>  -16.8932    1.0000 </r>
       <r>  -16.8223    1.0000 </r>
       <r>  -16.7953    1.0000 </r>
       <r>  -15.9120    1.0000 </r>
       <r>  -15.8427    1.0000 </r>
       <r>  -15.6958    1.0000 </r>
       <r>  -15.2126    1.0000 </r>
       <r>  -15.1624    1.0000 </r>
       <r>  -14.9703    1.0000 </r>
       <r>  -14.9393    1.0000 </r>
       <r>  -14.8363    1.0000 </r>
       <r>  -14.6308    1.0000 </r>
       <r>  -14.5490    1.0000 </r>
       <r>  -14.4890    1.0000 </r>
       <r>  -14.0855    1.0000 </r>
       <r>  -14.0023    1.0000 </r>
       <r>  -13.9649    1.0000 </r>
       <r>  -13.6875    1.0000 </r>
       <r>  -13.6596    1.0000 </r>
       <r>  -13.3326    1.0000 </r>
       <r>  -13.0137    1.0000 </r>
       <r>  -12.9845    1.0000 </r>
       <r>  -12.9419    1.0000 </r>
       <r>  -12.6582    1.0000 </r>
       <r>  -12.6113    1.0000 </r>
       <r>  -12.5695    1.0000 </r>
       <r>  -12.4470    1.0000 </r>
       <r>  -12.0542    1.0000 </r>
       <r>  -12.0364    1.0000 </r>
       <r>  -11.9834    1.0000 </r>
       <r>  -11.9327    1.0000 </r>
       <r>  -11.9102    1.0000 </r>
       <r>  -11.8726    1.0000 </r>
       <r>  -11.6843    1.0000 </r>
       <r>  -11.6300    1.0000 </r>
       <r>  -11.4890    1.0000 </r>
       <r>  -11.4422    1.0000 </r>
       <r>  -11.4171    1.0000 </r>
       <r>  -11.3730    1.0000 </r>
       <r>  -11.3426    1.0000 </r>
       <r>  -11.3008    1.0000 </r>
       <r>  -11.1102    1.0000 </r>
       <r>  -10.9428    1.0000 </r>
       <r>  -10.9285    1.0000 </r>
       <r>  -10.8431    1.0000 </r>
       <r>  -10.7897    1.0000 </r>
       <r>  -10.5206    1.0000 </r>
       <r>  -10.5158    1.0000 </r>
       <r>  -10.5132    1.0000 </r>
       <r>  -10.5056    1.0000 </r>
       <r>  -10.4025    1.0000 </r>
       <r>  -10.1279    1.0000 </r>
       <r>  -10.1139    1.0000 </r>
       <r>  -10.0549    1.0000 </r>
       <r>  -10.0433    1.0000 </r>
       <r>  -10.0280    1.0000 </r>
       <r>   -9.5769    1.0000 </r>
       <r>   -9.4978    1.0000 </r>
       <r>   -9.4181    1.0000 </r>
       <r>   -9.4008    1.0000 </r>
       <r>   -9.3838    1.0000 </r>
       <r>   -9.3241    1.0000 </r>
       <r>   -9.2003    1.0000 </r>
       <r>   -9.0548    1.0000 </r>
       <r>   -9.0198    1.0000 </r>
       <r>   -8.9220    1.0000 </r>
       <r>   -8.8863    1.0000 </r>
       <r>   -8.7690    1.0000 </r>
       <r>   -8.6992    1.0000 </r>
       <r>   -8.6378    1.0000 </r>
       <r>   -8.6016    1.0000 </r>
       <r>   -8.5144    1.0000 </r>
       <r>   -8.3439    1.0000 </r>
       <r>   -8.2652    1.0000 </r>
       <r>   -8.2407    1.0000 </r>
       <r>   -8.0720    1.0000 </r>
       <r>   -8.0173    1.0000 </r>
       <r>   -7.9888    1.0000 </r>
       <r>   -7.8075    1.0000 </r>
       <r>   -7.7696    1.0000 </r>
       <r>   -7.1487    1.0000 </r>
       <r>   -7.0963    1.0000 </r>
       <r>   -7.0566    1.0000 </r>
       <r>   -7.0455    1.0000 </r>
       <r>   -6.9943    1.0000 </r>
       <r>   -6.9019    1.0000 </r>
       <r>   -6.8085    1.0000 </r>
       <r>   -6.7838    1.0000 </r>
       <r>   -6.7179    1.0000 </r>
       <r>   -6.6885    1.0000 </r>
       <r>   -6.6372    1.0000 </r>
       <r>   -6.5316    1.0000 </r>
       <r>   -6.3479    1.0000 </r>
       <r>   -6.2860    1.0000 </r>
       <r>   -6.2481    1.0000 </r>
       <r>   -6.2448    1.0000 </r>
       <r>   -6.2418    1.0000 </r>
[...]
       <r>   -29.9107     0.0000     6.0000 </r>
       <r>   -29.7943     0.0000     6.0000 </r>
       <r>   -29.6779     0.0000     6.0000 </r>
       <r>   -29.5615     0.0000     6.0000 </r>
       <r>   -29.4451     0.0000     6.0000 </r>
       <r>   -29.3287     0.0000     6.0000 </r>
       <r>   -29.2123     0.0000     6.0000 </r>
       <r>   -29.0959     0.0000     6.0000 </r>
       <r>   -28.9795     0.0000     6.0000 </r>
       <r>   -28.8631     0.0000     6.0000 </r>
       <r>   -28.7467     0.0000     6.0000 </r>
       <r>   -28.6303     0.0000     6.0000 </r>
       <r>   -28.5138     0.0000     6.0000 </r>
       <r>   -28.3974     0.0000     6.0000 </r>
       <r>   -28.2810     0.0000     6.0000 </r>
       <r>   -28.1646     0.0000     6.0000 </r>
       <r>   -28.0482     0.0000     6.0000 </r>
       <r>   -27.9318     0.0000     6.0000 </r>
       <r>   -27.8154     0.0000     6.0000 </r>
       <r>   -27.6990     0.0000     6.0000 </r>
       <r>   -27.5826     0.0000     6.0000 </r>
       <r>   -27.4662     0.0000     6.0000 </r>
       <r>   -27.3498     0.0000     6.0000 </r>
       <r>   -27.2334     0.0000     6.0000 </r>
       <r>   -27.1169     0.0000     6.0000 </r>
       <r>   -27.0005     0.0000     6.0000 </r>
       <r>   -26.8841     0.0000     6.0000 </r>
       <r>   -26.7677     0.0000     6.0000 </r>
       <r>   -26.6513     0.0000     6.0000 </r>
       <r>   -26.5349     0.0000     6.0000 </r>
       <r>   -26.4185     0.0000     6.0000 </r>
       <r>   -26.3021     0.0000     6.0000 </r>
       <r>   -26.1857     0.0000     6.0000 </r>
       <r>   -26.0693     0.0000     6.0000 </r>
       <r>   -25.9529     0.0000     6.0000 </r>
       <r>   -25.8365     0.2770     6.0322 </r>
       <r>   -25.7200    34.3618    12.0000 </r>
       <r>   -25.6036     0.0000    12.0000 </r>
       <r>   -25.4872     0.0000    12.0000 </r>
       <r>   -25.3708     0.0000    12.0000 </r>
       <r>   -25.2544     0.0000    12.0000 </r>
       <r>   -25.1380     0.0000    12.0000 </r>
       <r>   -25.0216     0.0000    12.0000 </r>
       <r>   -24.9052     0.0000    12.0000 </r>
       <r>   -24.7888     0.0000    12.0000 </r>
       <r>   -24.6724     0.0000    12.0000 </r>
       <r>   -24.5560     0.0000    12.0000 </r>
       <r>   -24.4396     0.0000    12.0000 </r>
       <r>   -24.3231     0.0000    12.0000 </r>
       <r>   -24.2067     0.0000    12.0000 </r>
       <r>   -24.0903     0.0000    12.0000 </r>
       <r>   -23.9739     0.0000    12.0000 </r>
       <r>   -23.8575     0.0000    12.0000 </r>
       <r>   -23.7411     0.0000    12.0000 </r>
       <r>   -23.6247     0.0000    12.0000 </r>
       <r>   -23.5083     0.0000    12.0000 </r>
       <r>   -23.3919     0.0000    12.0000 </r>
       <r>   -23.2755     0.0000    12.0000 </r>
       <r>   -23.1591     0.0000    12.0000 </r>
       <r>   -23.0427     0.0000    12.0000 </r>
       <r>   -22.9262     0.0000    12.0000 </r>
       <r>   -22.8098     0.0000    12.0000 </r>
       <r>   -22.6934     0.0000    12.0000 </r>
       <r>   -22.5770     0.0000    12.0000 </r>
       <r>   -22.4606     0.0000    12.0000 </r>
       <r>   -22.3442     0.0000    12.0000 </r>
       <r>   -22.2278     0.0000    12.0000 </r>
       <r>   -22.1114    11.6520    13.3564 </r>
       <r>   -21.9950     0.0123    14.0014 </r>
       <r>   -21.8786     0.0000    18.0000 </r>
       <r>   -21.7622     0.0000    18.0000 </r>
       <r>   -21.6458    13.4584    20.0000 </r>
       <r>   -21.5293     0.0000    20.0000 </r>
       <r>   -21.4129    11.9127    21.3867 </r>
       <r>   -21.2965    20.8464    24.0600 </r>
       <r>   -21.1801     3.3191    24.6530 </r>
       <r>   -21.0637     9.7296    25.9993 </r>
       <r>   -20.9473     1.9037    26.2216 </r>
       <r>   -20.8309     5.9768    27.7624 </r>
       <r>   -20.7145     0.0000    28.0000 </r>
       <r>   -20.5981     0.0000    28.0000 </r>
       <r>   -20.4817     0.0000    28.0000 </r>
       <r>   -20.3653     0.0000    28.0000 </r>
       <r>   -20.2489     0.0000    28.0000 </r>
       <r>   -20.1324     0.0000    28.0000 </r>
       <r>   -20.0160    22.8476    30.6596 </r>
       <r>   -19.8996     7.9597    31.7932 </r>
       <r>   -19.7832     8.4045    32.9783 </r>
       <r>   -19.6668     5.7038    33.8640 </r>
       <r>   -19.5504     0.0000    34.0000 </r>
       <r>   -19.4340    26.6137    37.0981 </r>
       <r>   -19.3176     9.8152    39.1426 </r>
       <r>   -19.2012     7.5873    40.3166 </r>
       <r>   -19.0848     0.0107    42.0012 </r>
       <r>   -18.9684     2.2384    42.4606 </r>
       <r>   -18.8520     1.9597    42.7948 </r>
       <r>   -18.7355     5.3411    43.5217 </r>
       <r>   -18.6191     1.7181    44.0000 </r>
       <r>   -18.5027     7.3670    44.8576 </r>
       <r>   -18.3863     5.4501    45.7011 </r>
       <r>   -18.2699    12.5654    51.4627 </r>
       <r>   -18.1535    12.3524    53.0046 </r>
       <r>   -18.0371     0.0000    54.0000 </r>
       <r>   -17.9207     0.6569    54.0765 </r>
       <r>   -17.8043     2.3781    54.5768 </r>
       <r>   -17.6879     3.7958    55.1419 </r>
       <r>   -17.5715     1.7181    56.0000 </r>
       <r>   -17.4551     6.7843    56.7897 </r>
       <r>   -17.3386    23.4779    59.9997 </r>
       <r>   -17.2222     0.0000    60.0000 </r>
       <r>   -17.1058     0.0000    60.0000 </r>
       <r>   -16.9894     0.0000    60.0000 </r>
       <r>   -16.8730    17.1221    61.9932 </r>
       <r>   -16.7566    34.3618    66.0000 </r>
       <r>   -16.6402     0.0000    66.0000 </r>
       <r>   -16.5238     0.0000    66.0000 </r>
       <r>   -16.4074     0.0000    66.0000 </r>
       <r>   -16.2910     0.0000    66.0000 </r>
       <r>   -16.1746     0.0000    66.0000 </r>
       <r>   -16.0582     0.0000    66.0000 </r>
       <r>   -15.9417     0.0000    66.0000 </r>
       <r>   -15.8253    28.8553    69.9590 </r>
       <r>   -15.7089    12.9489    71.5074 </r>
       <r>   -15.5925     0.0000    72.0000 </r>
       <r>   -15.4761     0.0000    72.0000 </r>
       <r>   -15.3597     0.0000    72.0000 </r>
       <r>   -15.2433     5.1003    72.5937 </r>
       <r>   -15.1269    12.0900    75.4074 </r>
       <r>   -15.0105     0.0000    76.0000 </r>
       <r>   -14.8941    31.4852    79.6651 </r>
       <r>   -14.7777     6.1971    80.7214 </r>
       <r>   -14.6613    10.7476    82.3178 </r>
       <r>   -14.5448    15.8829    85.8489 </r>
       <r>   -14.4284     6.2997    88.0000 </r>
       <r>   -14.3120     0.0261    88.0030 </r>
       <r>   -14.1956     5.8197    89.3108 </r>
       <r>   -14.0792     2.4120    89.7808 </r>
       <r>   -13.9628    19.7280    92.2298 </r>
       <r>   -13.8464     3.0151    92.7510 </r>
       <r>   -13.7300    13.8512    94.5457 </r>
       <r>   -13.6136    22.9079    98.0000 </r>
       <r>   -13.4972     0.0000    98.0000 </r>
       <r>   -13.3808     0.0000    98.0000 </r>
       <r>   -13.2644    17.1809   100.0000 </r>
       <r>   -13.1479     0.0000   100.0000 </r>
       <r>   -13.0315    11.2700   101.6786 </r>
       <r>   -12.9151    21.0348   104.3486 </r>
       <r>   -12.7987     3.8768   104.9513 </r>
       <r>   -12.6823     2.6425   106.0076 </r>
       <r>   -12.5659    28.5828   111.3273 </r>
       <r>   -12.4495    13.2418   113.7415 </r>
       <r>   -12.3331     0.0000   114.0000 </r>
       <r>   -12.2167     0.0000   114.0000 </r>
       <r>   -12.1003     0.0000   114.0000 </r>
       <r>   -11.9839    42.9927   119.0047 </r>
       <r>   -11.8675    50.6240   125.8931 </r>
       <r>   -11.7510     0.0000   126.0000 </r>
       <r>   -11.6346    27.1469   129.1601 </r>
       <r>   -11.5182     9.3978   131.5940 </r>
       <r>   -11.4018    35.6954   135.9886 </r>
       <r>   -11.2854    25.6104   140.1813 </r>
       <r>   -11.1690     5.4089   141.1296 </r>
       <r>   -11.0526    12.3130   144.0000 </r>
       <r>   -10.9362    22.3221   146.5985 </r>
       <r>   -10.8198    14.1369   149.6457 </r>
       <r>   -10.7034     0.0000   152.0000 </r>
       <r>   -10.5870     0.0000   152.0000 </r>
       <r>   -10.4706    68.7236   160.0000 </r>
       <r>   -10.3541    13.9112   161.6194 </r>
       <r>   -10.2377     0.0754   162.0088 </r>
       <r>   -10.1213    18.4910   165.1525 </r>
       <r>   -10.0049    51.4958   171.9945 </r>
       <r>    -9.8885     0.0000   172.0000 </r>
       <r>    -9.7721     0.0000   172.0000 </r>
       <r>    -9.6557     0.0000   172.0000 </r>
       <r>    -9.5393    11.1892   173.3025 </r>
       <r>    -9.4229    31.7411   177.6949 </r>
       <r>    -9.3065    24.2981   183.9952 </r>
       <r>    -9.1901     3.7730   184.4392 </r>
       <r>    -9.0737     9.4875   186.0044 </r>
       <r>    -8.9572    21.7673   190.0672 </r>
       <r>    -8.8408    17.7562   194.2670 </r>
       <r>    -8.7244     7.2299   196.0083 </r>
       <r>    -8.6080    21.2039   200.0350 </r>
       <r>    -8.4916    28.1415   204.0092 </r>
       <r>    -8.3752     5.2555   205.5451 </r>
       <r>    -8.2588     4.6077   206.3364 </r>
       <r>    -8.1424    18.3122   209.1650 </r>
       <r>    -8.0260    31.1763   213.6292 </r>
       <r>    -7.9096     2.5771   216.0000 </r>
       <r>    -7.7932    16.9823   217.9769 </r>
       <r>    -7.6768     0.0000   220.0000 </r>
       <r>    -7.5603     0.0000   220.0000 </r>
       <r>    -7.4439     0.0000   220.0000 </r>
       <r>    -7.3275     0.0000   220.0000 </r>
       <r>    -7.2111     0.0000   220.0000 </r>
       <r>    -7.0947    21.7745   222.5347 </r>
       <r>    -6.9783    40.8557   229.9893 </r>
       <r>    -6.8619    17.1809   232.0000 </r>
       <r>    -6.7455    40.2164   236.6815 </r>
       <r>    -6.6291    20.2880   240.3617 </r>
       <r>    -6.5127    26.6134   243.9980 </r>
       <r>    -6.3963     0.0000   244.0000 </r>
       <r>    -6.2799    29.0754   247.3846 </r>
       <r>    -6.1634    17.1809   254.0000 </r>
       <r>    -6.0470    10.1478   255.1813 </r>
       <r>    -5.9306    23.1268   258.6921 </r>
       <r>    -5.8142    17.1495   261.9963 </r>
       <r>    -5.6978    17.2794   264.0115 </r>
       <r>    -5.5814    11.1676   266.0000 </r>
       <r>    -5.4650     0.0000   266.0000 </r>
       <r>    -5.3486    27.6264   269.2159 </r>
       <r>    -5.2322     0.0000   270.0000 </r>
       <r>    -5.1158     0.0000   270.0000 </r>
       <r>    -4.9994     0.0000   270.0000 </r>
       <r>    -4.8830     0.0000   270.0000 </r>
       <r>    -4.7665     0.0000   270.0000 </r>
       <r>    -4.6501     0.0000   270.0000 </r>
       <r>    -4.5337     0.0000   270.0000 </r>
       <r>    -4.4173     0.0000   270.0000 </r>
       <r>    -4.3009     0.0000   270.0000 </r>
       <r>    -4.1845     0.0000   270.0000 </r>
       <r>    -4.0681     0.0000   270.0000 </r>
       <r>    -3.9517     0.0000   270.0000 </r>
       <r>    -3.8353     0.0000   270.0000 </r>
       <r>    -3.7189     0.0000   270.0000 </r>
       <r>    -3.6025     0.0000   270.0000 </r>
       <r>    -3.4861     0.0000   270.0000 </r>
       <r>    -3.3696     0.0000   270.0000 </r>
       <r>    -3.2532     0.0000   270.0000 </r>
       <r>    -3.1368     0.0000   270.0000 </r>
       <r>    -3.0204     0.0000   270.0000 </r>
       <r>    -2.9040     0.0000   270.0000 </r>
       <r>    -2.7876    17.1815   272.0001 </r>
       <r>    -2.6712    17.1809   276.0000 </r>
       <r>    -2.5548     0.0000   276.0000 </r>
       <r>    -2.4384     0.0000   276.0000 </r>
       <r>    -2.3220     0.0000   276.0000 </r>
       <r>    -2.2056     0.0000   276.0000 </r>
       <r>    -2.0892     0.0000   276.0000 </r>
       <r>    -1.9727     9.5759   277.1147 </r>
       <r>    -1.8563     3.4787   280.4050 </r>
       <r>    -1.7399     7.7314   282.0000 </r>
       <r>    -1.6235     0.0000   282.0000 </r>
       <r>    -1.5071     0.0000   282.0000 </r>
       <r>    -1.3907    17.4065   284.0263 </r>
       <r>    -1.2743     7.4297   285.9982 </r>
       <r>    -1.1579    57.4692   292.6899 </r>
       <r>    -1.0415    19.4912   297.6689 </r>
       <r>    -0.9251     4.8108   298.5600 </r>
       <r>    -0.8087     4.0380   300.0034 </r>
       <r>    -0.6923    14.1321   302.0118 </r>
       <r>    -0.5758     7.6508   303.3573 </r>
       <r>    -0.4594     1.1454   304.0000 </r>
       <r>    -0.3430     0.6202   304.0722 </r>
       <r>    -0.2266    28.0676   308.1673 </r>
       <r>    -0.1102    21.1680   311.6308 </r>
       <r>     0.0062    20.9805   314.4423 </r>
       <r>     0.1226     8.6279   316.3044 </r>
       <r>     0.2390    17.5190   318.7394 </r>
       <r>     0.3554    18.2266   321.6884 </r>
       <r>     0.4718    28.0633   327.0001 </r>
       <r>     0.5882    12.5111   329.9231 </r>
       <r>     0.7046    29.2688   334.0738 </r>
       <r>     0.8211    55.4284   342.3190 </r>
       <r>     0.9375    26.8700   346.5946 </r>
       <r>     1.0539    38.2643   352.5876 </r>
       <r>     1.1703    47.5085   360.4304 </r>
       <r>     1.2867    38.9210   367.1641 </r>
       <r>     1.4031    40.5776   373.8902 </r>
       <r>     1.5195    46.2156   381.4799 </r>
       <r>     1.6359     1.4317   384.0000 </r>
       <r>     1.7523     0.0000   384.0000 </r>
       <r>     1.8687     0.0000   384.0000 </r>
       <r>     1.9851     0.0000   384.0000 </r>
       <r>     2.1015     0.0000   384.0000 </r>
       <r>     2.2180     0.0000   384.0000 </r>
       <r>     2.3344     0.0000   384.0000 </r>
       <r>     2.4508     0.0000   384.0000 </r>
       <r>     2.5672     0.0000   384.0000 </r>
       <r>     2.6836     0.0000   384.0000 </r>
       <r>     2.8000     0.0000   384.0000 </r>
       <r>     2.9164     0.0000   384.0000 </r>
       <r>     3.0328     0.0000   384.0000 </r>
       <r>     3.1492     0.0000   384.0000 </r>
      </set>
     </set>
    </array>
   </total>
  </dos>
 </calculation>
 <structure name="finalpos" >
  <crystal>
   <varray name="basis" >
    <v>      22.39849281       0.02405983       0.00000000 </v>
    <v>     -11.17817376      19.38227077       0.00000000 </v>
    <v>       0.00000000       0.00000000      20.00000000 </v>
   </varray>
   <i name="volume">   8688.05194930 </i>
   <varray name="rec_basis" >
    <v>       0.04461822       0.02573229       0.00000000 </v>
    <v>      -0.00005539       0.05156160       0.00000000 </v>
    <v>       0.00000000       0.00000000       0.05000000 </v>
   </varray>
  </crystal>
  <varray name="positions" >
   <v>       0.20215183       0.59723205       0.50705547 </v>
   <v>       0.16094892       0.58876274       0.56313185 </v>
   <v>       0.08936255       0.55418795       0.56041069 </v>
   <v>       0.05535917       0.52535768       0.50006778 </v>
   <v>       0.09559690       0.53435386       0.44299461 </v>
   <v>       0.16733562       0.56954758       0.44666431 </v>
   <v>       0.27865510       0.63547639       0.51027780 </v>
   <v>       0.31524571       0.59987873       0.50855784 </v>
   <v>       0.38679345       0.63533352       0.51669029 </v>
   <v>       0.42200930       0.70714894       0.52429052 </v>
   <v>       0.38613035       0.74343552       0.52357007 </v>
   <v>       0.31437029       0.70728624       0.51687722 </v>
   <v>       0.42407848       0.82010842       0.52600965 </v>
   <v>       0.45419243       0.85937216       0.58377711 </v>
   <v>       0.42505959       0.59693553       0.51640448 </v>
   <v>       0.45845343       0.58999189       0.57281962 </v>
   <v>       0.43344918       0.85707237       0.46650643 </v>
   <v>       0.43116430       0.56702931       0.45695538 </v>
   <v>       0.49125546       0.93120572       0.58318613 </v>
   <v>       0.49935465       0.96723737       0.52354104 </v>
   <v>       0.53788465       0.04347444       0.52213266 </v>
   <v>       0.52529625       0.08211707       0.56966690 </v>
   <v>       0.56074536       0.15391430       0.56717993 </v>
   <v>       0.49537061       0.55509887       0.57108268 </v>
   <v>       0.49993690       0.52456673       0.51161888 </v>
   <v>       0.53763649       0.48597754       0.50997495 </v>
   <v>       0.52679487       0.43728959       0.55978649 </v>
   <v>       0.56198959       0.40066554       0.55831053 </v>
   <v>       0.47009781       0.92883997       0.46500969 </v>
   <v>       0.58785389       0.07894936       0.47271856 </v>
   <v>       0.46764761       0.53166791       0.45433123 </v>
   <v>       0.58524637       0.49721438       0.45898167 </v>
   <v>       0.75709092       0.37390283       0.49999959 </v>
   <v>       0.72022517       0.40939047       0.49838968 </v>
   <v>       0.64852365       0.37435832       0.50720749 </v>
   <v>       0.61354727       0.30258611       0.51597033 </v>
   <v>       0.64894596       0.26564716       0.51442523 </v>
   <v>       0.72078304       0.30197840       0.50718190 </v>
   <v>       0.61107571       0.18941785       0.51806939 </v>
   <v>       0.61034056       0.41254275       0.50786611 </v>
   <v>       0.97919301       0.48605132       0.49807160 </v>
   <v>       0.94240294       0.43534188       0.54654771 </v>
   <v>       0.87074830       0.39835713       0.54591147 </v>
   <v>       0.83332127       0.41186049       0.49773416 </v>
   <v>       0.62436725       0.15069606       0.47121195 </v>
   <v>       0.62155711       0.46165281       0.45839251 </v>
   <v>       0.87010406       0.46267436       0.44935936 </v>
   <v>       0.94191645       0.49861809       0.44900605 </v>
   <v>       0.19263203       0.61539385       0.62938909 </v>
   <v>       0.44682495       0.82542740       0.64925923 </v>
   <v>       0.45430462       0.61845924       0.63842387 </v>
   <v>       0.16930079       0.64608688       0.66248399 </v>
   <v>       0.23873364       0.60389222       0.64743824 </v>
   <v>       0.39158239       0.77242095       0.66100704 </v>
   <v>       0.39854991       0.61325629       0.65426284 </v>
   <v>       0.49650958       0.85343716       0.68818144 </v>
   <v>       0.50717099       0.64444493       0.67337983 </v>
   <v>       0.06049014       0.55043826       0.60559325 </v>
   <v>       0.07020174       0.51232299       0.39546153 </v>
   <v>       0.19775792       0.57611368       0.40182311 </v>
   <v>       0.28608632       0.73528549       0.51807185 </v>
   <v>       0.28744999       0.54379936       0.50451560 </v>
   <v>       0.41132033       0.82807075       0.42056739 </v>
   <v>       0.40668594       0.57229851       0.41191515 </v>
   <v>       0.47792105       0.73504413       0.53004946 </v>
   <v>       0.55754570       0.27473598       0.52081324 </v>
   <v>       0.48637993       0.05540691       0.60820747 </v>
   <v>       0.55001702       0.18308645       0.60429782 </v>
   <v>       0.51443241       0.95842127       0.62961432 </v>
   <v>       0.48962365       0.42748870       0.59954052 </v>
   <v>       0.55292560       0.36307077       0.59744895 </v>
   <v>       0.52101296       0.55269141       0.61645824 </v>
   <v>       0.47539137       0.95580393       0.41799994 </v>
   <v>       0.47035624       0.50817500       0.40745294 </v>
   <v>       0.74894539       0.27381637       0.50742111 </v>
   <v>       0.74811115       0.46549022       0.49397971 </v>
   <v>       0.97051819       0.42446220       0.58470759 </v>
   <v>       0.84302421       0.35939674       0.58416215 </v>
   <v>       0.66299112       0.17745459       0.43245656 </v>
   <v>       0.59883251       0.04982588       0.43575395 </v>
   <v>       0.65857987       0.47124924       0.41854987 </v>
   <v>       0.59477617       0.53524751       0.42016332 </v>
   <v>       0.84195756       0.47362384       0.41128270 </v>
   <v>       0.96959629       0.53811773       0.41116956 </v>
  </varray>
 </structure>
</modeling>
