<?xml version="1.0" encoding="ISO-8859-1"?>
<modeling>
 <generator>
  <i name="program" type="string">vasp </i>
  <i name="version" type="string">5.4.4.18Apr17-6-g9f103f2a35  </i>
  <i name="subversion" type="string">(build Jun 07 2020 16:50:00) complex            parallel </i>
  <i name="platform" type="string">LinuxIFC </i>
  <i name="date" type="string">2023 02 17 </i>
  <i name="time" type="string">04:17:54 </i>
 </generator>
 <incar>
  <i type="string" name="SYSTEM">Simulation for cell shape cell volume r</i>
  <i type="int" name="ISTART">     1</i>
  <i type="string" name="PREC">high</i>
  <i type="string" name="ALGO">48</i>
  <i type="int" name="ICHARG">    11</i>
  <i type="int" name="NELM">   200</i>
  <i type="int" name="IBRION">    -1</i>
  <i name="EDIFF">      0.00001000</i>
  <i name="EDIFFG">     -0.01000000</i>
  <i type="int" name="NSW">     0</i>
  <i type="int" name="ISIF">     2</i>
  <i name="ENCUT">    500.00000000</i>
  <i name="POTIM">      0.30000000</i>
  <i type="string" name="LREAL">A</i>
  <i type="int" name="ISMEAR">     0</i>
  <i name="SIGMA">      0.01000000</i>
  <i type="int" name="NWRITE">     0</i>
  <i type="logical" name="LWAVE"> F  </i>
  <i type="logical" name="LCHARG"> F  </i>
  <v type="int" name="KPOINT_BSE">    -1     0     0     0</v>
  <i type="int" name="NELM">   200</i>
  <i type="string" name="GGA">PE</i>
 </incar>
 <structure name="primitive_cell" >
  <crystal>
   <varray name="basis" >
    <v>      34.22130522      -0.01151481       0.00000000 </v>
    <v>     -17.11023781      29.64361121       0.00000000 </v>
    <v>       0.00000000       0.00000000      20.00000000 </v>
   </varray>
   <i name="volume">  20284.92091520 </i>
   <varray name="rec_basis" >
    <v>       0.02922724       0.01686991       0.00000000 </v>
    <v>       0.00001135       0.03374063       0.00000000 </v>
    <v>       0.00000000       0.00000000       0.05000000 </v>
   </varray>
  </crystal>
  <varray name="positions" >
   <v>      -0.08858532       0.09010089       0.43191565 </v>
   <v>      -0.06785620       0.06589227       0.43248536 </v>
   <v>      -0.09575470       0.10683382       0.48889703 </v>
   <v>      -0.10024582       0.11902152       0.36332711 </v>
   <v>      -0.06369143       0.05329360       0.38436552 </v>
   <v>      -0.05153947       0.05691370       0.49143693 </v>
   <v>      -0.12060603       0.13170206       0.48325518 </v>
   <v>      -0.07980224       0.09971209      -0.44815626 </v>
   <v>      -0.11074081       0.14239188       0.36174721 </v>
   <v>      -0.05739140       0.07462234      -0.44927418 </v>
   <v>      -0.12775148       0.14780211       0.42048386 </v>
   <v>      -0.12114279       0.14950934       0.31841346 </v>
   <v>      -0.13730182       0.13880526      -0.45970187 </v>
   <v>      -0.08477843       0.11725457      -0.38960308 </v>
   <v>      -0.02915976       0.02924980       0.49074037 </v>
   <v>      -0.04490601       0.06860546      -0.40232957 </v>
   <v>      -0.10818886       0.12770067      -0.39118637 </v>
   <v>      -0.15220281       0.17087355       0.42196140 </v>
   <v>      -0.09192718      -0.03425647       0.49134753 </v>
   <v>      -0.07758008       0.10695979      -0.34621981 </v>
   <v>      -0.05517527      -0.01796229       0.49103873 </v>
   <v>       0.03849045       0.08661755       0.49033016 </v>
   <v>       0.01800174       0.04987301       0.49041987 </v>
   <v>      -0.16124767       0.15979432      -0.45995795 </v>
   <v>      -0.15794274       0.18370476       0.37513632 </v>
   <v>      -0.16971800       0.17681311       0.48138699 </v>
   <v>      -0.17372855       0.16395468      -0.41172416 </v>
   <v>      -0.03455335      -0.04449433       0.49110344 </v>
   <v>       0.03917940       0.02384576       0.49069867 </v>
   <v>       0.01265969      -0.02330516       0.49084494 </v>
   <v>      -0.19587247       0.20074418       0.48307907 </v>
   <v>      -0.06220995      -0.09451830       0.49181846 </v>
   <v>      -0.26051707       0.13952813       0.49155161 </v>
   <v>       0.09794196       0.05932501       0.38472807 </v>
   <v>       0.08921130       0.04618210       0.49155516 </v>
   <v>      -0.13659140       0.26688319       0.47476889 </v>
   <v>      -0.05635086      -0.10297874       0.38529689 </v>
   <v>      -0.24310536       0.17628201       0.48873163 </v>
   <v>      -0.17330960       0.24802103       0.47898837 </v>
   <v>       0.11461362       0.06304308       0.43281404 </v>
   <v>      -0.07616062      -0.09965413      -0.40255358 </v>
   <v>      -0.06992421      -0.11978850       0.43311304 </v>
   <v>       0.02893418      -0.04377338       0.49106713 </v>
   <v>      -0.08123842      -0.11811143      -0.44933317 </v>
   <v>       0.11267984       0.05138678      -0.44925515 </v>
   <v>       0.09412862       0.03852839      -0.40241788 </v>
   <v>       0.15955196       0.08371089       0.43239852 </v>
   <v>      -0.09411069      -0.16472658       0.43236341 </v>
   <v>      -0.26787340       0.19872720       0.48970336 </v>
   <v>      -0.19754997       0.27097261       0.48069836 </v>
   <v>      -0.10638676      -0.16560754      -0.44840120 </v>
   <v>       0.16017766       0.07371465      -0.44801899 </v>
   <v>      -0.11200699      -0.18864700       0.48901426 </v>
   <v>      -0.24467489       0.24594703       0.48588204 </v>
   <v>       0.18338020       0.09033410       0.48929502 </v>
   <v>      -0.11573474      -0.17071988      -0.34689334 </v>
   <v>      -0.12546502      -0.18818703      -0.39035756 </v>
   <v>      -0.12185674      -0.20515482       0.36344783 </v>
   <v>      -0.31802056       0.17581646       0.49230055 </v>
   <v>      -0.32741824       0.16603982       0.38483828 </v>
   <v>      -0.17637927       0.32093361       0.47789220 </v>
   <v>       0.19995942       0.09603775       0.36376144 </v>
   <v>       0.16498929       0.07061351      -0.34621379 </v>
   <v>      -0.18373164       0.32421066       0.37140619 </v>
   <v>       0.18255356       0.07794127      -0.38954617 </v>
   <v>      -0.34324944       0.16459441       0.43292164 </v>
   <v>      -0.16242379       0.33194729      -0.41559315 </v>
   <v>      -0.26379478       0.26363615       0.48676898 </v>
   <v>      -0.17425267       0.34299261       0.41844481 </v>
   <v>      -0.32298213       0.17865683      -0.40060961 </v>
   <v>      -0.16326679       0.34692672      -0.46343202 </v>
   <v>      -0.14523944      -0.23901343       0.36145303 </v>
   <v>      -0.13657112      -0.23836329       0.48334399 </v>
   <v>      -0.34111727       0.17071402      -0.44816115 </v>
   <v>      -0.13533995      -0.22191458      -0.39142676 </v>
   <v>       0.23311071       0.11536034       0.48368366 </v>
   <v>       0.21638093       0.10148519      -0.39075976 </v>
   <v>       0.23386898       0.10668650       0.36188940 </v>
   <v>      -0.15160575      -0.26154927       0.42034246 </v>
   <v>      -0.15169276      -0.25645758       0.31814310 </v>
   <v>       0.25633117       0.12323426       0.42073829 </v>
   <v>       0.25690572       0.13156572      -0.45915684 </v>
   <v>       0.25137296       0.11755623       0.31859484 </v>
   <v>      -0.14439835      -0.26215126      -0.45944314 </v>
   <v>      -0.38633879       0.15423393       0.43159033 </v>
   <v>      -0.16174777       0.38896847       0.41763226 </v>
   <v>      -0.15376616       0.38976324      -0.46230361 </v>
   <v>      -0.38737097       0.15728173      -0.44781699 </v>
   <v>      -0.16933575       0.39199546       0.31643468 </v>
   <v>      -0.40872486       0.15268403       0.48821257 </v>
   <v>      -0.15504247       0.41109043       0.48145034 </v>
   <v>      -0.15752254       0.41066099       0.35862462 </v>
   <v>      -0.17460918      -0.30908395       0.42176941 </v>
   <v>       0.30386672       0.14790217       0.42214785 </v>
   <v>       0.30184881       0.15568825      -0.45944922 </v>
   <v>      -0.39219007       0.16053734      -0.34601146 </v>
   <v>      -0.42110501       0.15328299       0.36248869 </v>
   <v>      -0.16523470      -0.30708118      -0.45972664 </v>
   <v>      -0.41012393       0.15027007      -0.38905117 </v>
   <v>      -0.18679982      -0.32767182       0.37481856 </v>
   <v>       0.32243823       0.15418613       0.37520660 </v>
   <v>      -0.15194100       0.42507630      -0.39269607 </v>
   <v>       0.32731811       0.16490544       0.48171903 </v>
   <v>       0.31854477       0.16775346      -0.41114567 </v>
   <v>      -0.18133941      -0.33253899       0.48141141 </v>
   <v>      -0.16999972      -0.32377203      -0.41139656 </v>
   <v>      -0.15607545       0.44136132       0.36335039 </v>
   <v>      -0.44096677       0.14855006      -0.39350959 </v>
   <v>      -0.45195565       0.15211739       0.48099042 </v>
   <v>      -0.45068040       0.15415752       0.35814545 </v>
   <v>      -0.15547139       0.45379592       0.48920461 </v>
   <v>       0.38041147       0.25576612       0.49140385 </v>
   <v>      -0.15398378       0.45400397      -0.38801827 </v>
   <v>      -0.46792617       0.15839463       0.41737509 </v>
   <v>      -0.45806834       0.16554942       0.31600661 </v>
   <v>      -0.27139357      -0.38994679       0.47448180 </v>
   <v>      -0.15634491       0.47522647       0.43284053 </v>
   <v>      -0.47425645       0.15089236      -0.46244005 </v>
   <v>       0.37742176       0.19131790       0.48339980 </v>
   <v>      -0.16082203       0.46992909      -0.44674202 </v>
   <v>      -0.20508712      -0.38262996       0.48317055 </v>
   <v>      -0.16487269       0.46107782      -0.34508407 </v>
   <v>       0.39995711       0.23855208       0.48885351 </v>
   <v>      -0.25235434      -0.40759202       0.47897825 </v>
   <v>      -0.14366469      -0.38563415       0.49201094 </v>
   <v>       0.38469057       0.13227356       0.47542873 </v>
   <v>       0.40236603       0.16898525       0.47957353 </v>
   <v>      -0.18042341      -0.40516137       0.48915515 </v>
   <v>       0.49825327       0.17041820       0.41863593 </v>
   <v>      -0.16702691      -0.49228775       0.43429722 </v>
   <v>       0.49218737       0.16006613      -0.46307548 </v>
   <v>      -0.17481564      -0.49768529      -0.44703771 </v>
   <v>       0.44717487       0.26353078       0.49023977 </v>
   <v>       0.48843502       0.17952259       0.37172162 </v>
   <v>      -0.16794843      -0.47746322       0.38634769 </v>
   <v>       0.47865325       0.17263852       0.47838671 </v>
   <v>      -0.27509181      -0.45478417       0.48100504 </v>
   <v>       0.47666846       0.15933279      -0.41500228 </v>
   <v>      -0.17937025      -0.47921418       0.49352410 </v>
   <v>      -0.18351126      -0.48813992      -0.39954237 </v>
   <v>       0.47265606       0.32335493       0.38569907 </v>
   <v>       0.47428535       0.31367104       0.49290364 </v>
   <v>       0.44956541       0.19346047       0.48146149 </v>
   <v>      -0.20265269      -0.45236500       0.49061202 </v>
   <v>      -0.32503941      -0.48374444       0.47791794 </v>
   <v>       0.48757319       0.33906467       0.43362954 </v>
   <v>       0.47141651       0.24054953       0.48682274 </v>
   <v>      -0.33626999      -0.48114341      -0.41557084 </v>
   <v>      -0.24987763      -0.47664288       0.48678657 </v>
   <v>       0.48343942       0.31832846      -0.40022276 </v>
   <v>      -0.32815043      -0.49398140       0.37133696 </v>
   <v>       0.49302934       0.33659611      -0.44770333 </v>
   <v>      -0.49177183       0.25984616       0.48799115 </v>
   <v>      -0.26738584       0.48655553       0.48795812 </v>
   <v>      -0.35113724      -0.49684135      -0.46352816 </v>
   <v>      -0.34700843       0.49650779       0.41830908 </v>
   <v>      -0.47962794       0.38213677       0.43209210 </v>
   <v>      -0.47418784       0.38285575      -0.44744174 </v>
   <v>      -0.39398674       0.46983329      -0.46271032 </v>
   <v>      -0.39300426       0.46305166       0.41722986 </v>
   <v>      -0.45806595       0.40433582       0.48848638 </v>
   <v>      -0.46517669       0.38743500      -0.34579514 </v>
   <v>      -0.45789100       0.40545277      -0.38870331 </v>
   <v>      -0.39586731       0.45251487       0.31605471 </v>
   <v>      -0.41525308       0.44741331       0.48090247 </v>
   <v>      -0.44536946       0.41657263       0.36262716 </v>
   <v>      -0.41466181       0.44584753       0.35808017 </v>
   <v>      -0.42890792       0.43639014      -0.39339882 </v>
  </varray>
 </structure>
 <varray name="primitive_index" >
  <v type="int" >        1 </v>
  <v type="int" >      109 </v>
  <v type="int" >      140 </v>
  <v type="int" >       39 </v>
  <v type="int" >       38 </v>
  <v type="int" >      139 </v>
  <v type="int" >      110 </v>
  <v type="int" >      141 </v>
  <v type="int" >        2 </v>
  <v type="int" >      142 </v>
  <v type="int" >      111 </v>
  <v type="int" >       40 </v>
  <v type="int" >       13 </v>
  <v type="int" >       14 </v>
  <v type="int" >       85 </v>
  <v type="int" >       61 </v>
  <v type="int" >       64 </v>
  <v type="int" >      112 </v>
  <v type="int" >       27 </v>
  <v type="int" >       63 </v>
  <v type="int" >       86 </v>
  <v type="int" >       26 </v>
  <v type="int" >       90 </v>
  <v type="int" >      143 </v>
  <v type="int" >       37 </v>
  <v type="int" >      113 </v>
  <v type="int" >       62 </v>
  <v type="int" >       87 </v>
  <v type="int" >       89 </v>
  <v type="int" >       88 </v>
  <v type="int" >       95 </v>
  <v type="int" >      144 </v>
  <v type="int" >       28 </v>
  <v type="int" >       46 </v>
  <v type="int" >      149 </v>
  <v type="int" >       29 </v>
  <v type="int" >       42 </v>
  <v type="int" >       94 </v>
  <v type="int" >       96 </v>
  <v type="int" >      119 </v>
  <v type="int" >       65 </v>
  <v type="int" >      114 </v>
  <v type="int" >       25 </v>
  <v type="int" >      147 </v>
  <v type="int" >      152 </v>
  <v type="int" >       69 </v>
  <v type="int" >        5 </v>
  <v type="int" >        3 </v>
  <v type="int" >       93 </v>
  <v type="int" >       91 </v>
  <v type="int" >      146 </v>
  <v type="int" >      151 </v>
  <v type="int" >      145 </v>
  <v type="int" >       92 </v>
  <v type="int" >      150 </v>
  <v type="int" >       67 </v>
  <v type="int" >       16 </v>
  <v type="int" >       43 </v>
  <v type="int" >      168 </v>
  <v type="int" >       58 </v>
  <v type="int" >      124 </v>
  <v type="int" >       47 </v>
  <v type="int" >       71 </v>
  <v type="int" >       49 </v>
  <v type="int" >       18 </v>
  <v type="int" >      138 </v>
  <v type="int" >       74 </v>
  <v type="int" >       30 </v>
  <v type="int" >      127 </v>
  <v type="int" >       81 </v>
  <v type="int" >      154 </v>
  <v type="int" >        4 </v>
  <v type="int" >      115 </v>
  <v type="int" >      167 </v>
  <v type="int" >       68 </v>
  <v type="int" >      120 </v>
  <v type="int" >       72 </v>
  <v type="int" >        6 </v>
  <v type="int" >      116 </v>
  <v type="int" >       44 </v>
  <v type="int" >      121 </v>
  <v type="int" >       17 </v>
  <v type="int" >       48 </v>
  <v type="int" >       15 </v>
  <v type="int" >       11 </v>
  <v type="int" >      126 </v>
  <v type="int" >       19 </v>
  <v type="int" >      166 </v>
  <v type="int" >       51 </v>
  <v type="int" >      165 </v>
  <v type="int" >      125 </v>
  <v type="int" >        8 </v>
  <v type="int" >      117 </v>
  <v type="int" >      122 </v>
  <v type="int" >      153 </v>
  <v type="int" >       84 </v>
  <v type="int" >       60 </v>
  <v type="int" >      148 </v>
  <v type="int" >       24 </v>
  <v type="int" >       41 </v>
  <v type="int" >       45 </v>
  <v type="int" >       75 </v>
  <v type="int" >      123 </v>
  <v type="int" >       70 </v>
  <v type="int" >      118 </v>
  <v type="int" >       66 </v>
  <v type="int" >       52 </v>
  <v type="int" >       83 </v>
  <v type="int" >      135 </v>
  <v type="int" >       12 </v>
  <v type="int" >      155 </v>
  <v type="int" >       34 </v>
  <v type="int" >       20 </v>
  <v type="int" >      136 </v>
  <v type="int" >       59 </v>
  <v type="int" >       32 </v>
  <v type="int" >        7 </v>
  <v type="int" >       23 </v>
  <v type="int" >      107 </v>
  <v type="int" >      156 </v>
  <v type="int" >      101 </v>
  <v type="int" >       76 </v>
  <v type="int" >      106 </v>
  <v type="int" >      102 </v>
  <v type="int" >       31 </v>
  <v type="int" >       35 </v>
  <v type="int" >      108 </v>
  <v type="int" >      100 </v>
  <v type="int" >      137 </v>
  <v type="int" >      128 </v>
  <v type="int" >      164 </v>
  <v type="int" >      157 </v>
  <v type="int" >      105 </v>
  <v type="int" >       57 </v>
  <v type="int" >       50 </v>
  <v type="int" >      134 </v>
  <v type="int" >       97 </v>
  <v type="int" >       82 </v>
  <v type="int" >      158 </v>
  <v type="int" >       73 </v>
  <v type="int" >       54 </v>
  <v type="int" >      163 </v>
  <v type="int" >      103 </v>
  <v type="int" >       99 </v>
  <v type="int" >      129 </v>
  <v type="int" >      133 </v>
  <v type="int" >      104 </v>
  <v type="int" >       78 </v>
  <v type="int" >       98 </v>
  <v type="int" >       77 </v>
  <v type="int" >       53 </v>
  <v type="int" >      162 </v>
  <v type="int" >       36 </v>
  <v type="int" >       33 </v>
  <v type="int" >      159 </v>
  <v type="int" >      132 </v>
  <v type="int" >        9 </v>
  <v type="int" >      161 </v>
  <v type="int" >       21 </v>
  <v type="int" >      131 </v>
  <v type="int" >      160 </v>
  <v type="int" >       80 </v>
  <v type="int" >       22 </v>
  <v type="int" >       55 </v>
  <v type="int" >      130 </v>
  <v type="int" >       56 </v>
  <v type="int" >       10 </v>
  <v type="int" >       79 </v>
 </varray>
 <kpoints>
  <generation param="listgenerated">
   <i name="divisions" type="int">      20 </i>
   <v>       0.00000000       0.00000000       0.00000000 </v>
   <v>       0.50000000       0.00000000       0.00000000 </v>
   <v>       0.33333333       0.33333333       0.00000000 </v>
   <v>       0.00000000       0.00000000       0.00000000 </v>
  </generation>
  <varray name="kpointlist" >
   <v>       0.00000000       0.00000000       0.00000000 </v>
   <v>       0.02631579       0.00000000       0.00000000 </v>
   <v>       0.05263158       0.00000000       0.00000000 </v>
   <v>       0.07894737       0.00000000       0.00000000 </v>
   <v>       0.10526316       0.00000000       0.00000000 </v>
   <v>       0.13157895       0.00000000       0.00000000 </v>
   <v>       0.15789474       0.00000000       0.00000000 </v>
   <v>       0.18421053       0.00000000       0.00000000 </v>
   <v>       0.21052632       0.00000000       0.00000000 </v>
   <v>       0.23684211       0.00000000       0.00000000 </v>
   <v>       0.26315789       0.00000000       0.00000000 </v>
   <v>       0.28947368       0.00000000       0.00000000 </v>
   <v>       0.31578947       0.00000000       0.00000000 </v>
   <v>       0.34210526       0.00000000       0.00000000 </v>
   <v>       0.36842105       0.00000000       0.00000000 </v>
   <v>       0.39473684       0.00000000       0.00000000 </v>
   <v>       0.42105263       0.00000000       0.00000000 </v>
   <v>       0.44736842       0.00000000       0.00000000 </v>
   <v>       0.47368421       0.00000000       0.00000000 </v>
   <v>       0.50000000       0.00000000       0.00000000 </v>
   <v>       0.50000000       0.00000000       0.00000000 </v>
   <v>       0.49122807       0.01754386       0.00000000 </v>
   <v>       0.48245614       0.03508772       0.00000000 </v>
   <v>       0.47368421       0.05263158       0.00000000 </v>
   <v>       0.46491228       0.07017544       0.00000000 </v>
   <v>       0.45614035       0.08771930       0.00000000 </v>
   <v>       0.44736842       0.10526316       0.00000000 </v>
   <v>       0.43859649       0.12280702       0.00000000 </v>
   <v>       0.42982456       0.14035088       0.00000000 </v>
   <v>       0.42105263       0.15789474       0.00000000 </v>
   <v>       0.41228070       0.17543860       0.00000000 </v>
   <v>       0.40350877       0.19298246       0.00000000 </v>
   <v>       0.39473684       0.21052632       0.00000000 </v>
   <v>       0.38596491       0.22807018       0.00000000 </v>
   <v>       0.37719298       0.24561404       0.00000000 </v>
   <v>       0.36842105       0.26315789       0.00000000 </v>
   <v>       0.35964912       0.28070175       0.00000000 </v>
   <v>       0.35087719       0.29824561       0.00000000 </v>
   <v>       0.34210526       0.31578947       0.00000000 </v>
   <v>       0.33333333       0.33333333       0.00000000 </v>
   <v>       0.33333333       0.33333333       0.00000000 </v>
   <v>       0.31578947       0.31578947       0.00000000 </v>
   <v>       0.29824561       0.29824561       0.00000000 </v>
   <v>       0.28070175       0.28070175       0.00000000 </v>
   <v>       0.26315789       0.26315789       0.00000000 </v>
   <v>       0.24561404       0.24561404       0.00000000 </v>
   <v>       0.22807018       0.22807018       0.00000000 </v>
   <v>       0.21052632       0.21052632       0.00000000 </v>
   <v>       0.19298246       0.19298246       0.00000000 </v>
   <v>       0.17543860       0.17543860       0.00000000 </v>
   <v>       0.15789474       0.15789474       0.00000000 </v>
   <v>       0.14035088       0.14035088       0.00000000 </v>
   <v>       0.12280702       0.12280702       0.00000000 </v>
   <v>       0.10526316       0.10526316       0.00000000 </v>
   <v>       0.08771930       0.08771930       0.00000000 </v>
   <v>       0.07017544       0.07017544       0.00000000 </v>
   <v>       0.05263158       0.05263158       0.00000000 </v>
   <v>       0.03508772       0.03508772       0.00000000 </v>
   <v>       0.01754386       0.01754386       0.00000000 </v>
   <v>       0.00000000       0.00000000       0.00000000 </v>
  </varray>
  <varray name="weights" >
   <v>       0.01666667 </v>
   <v>       0.01666667 </v>
   <v>       0.01666667 </v>
   <v>       0.01666667 </v>
   <v>       0.01666667 </v>
   <v>       0.01666667 </v>
   <v>       0.01666667 </v>
   <v>       0.01666667 </v>
   <v>       0.01666667 </v>
   <v>       0.01666667 </v>
   <v>       0.01666667 </v>
   <v>       0.01666667 </v>
   <v>       0.01666667 </v>
   <v>       0.01666667 </v>
   <v>       0.01666667 </v>
   <v>       0.01666667 </v>
   <v>       0.01666667 </v>
   <v>       0.01666667 </v>
   <v>       0.01666667 </v>
   <v>       0.01666667 </v>
   <v>       0.01666667 </v>
   <v>       0.01666667 </v>
   <v>       0.01666667 </v>
   <v>       0.01666667 </v>
   <v>       0.01666667 </v>
   <v>       0.01666667 </v>
   <v>       0.01666667 </v>
   <v>       0.01666667 </v>
   <v>       0.01666667 </v>
   <v>       0.01666667 </v>
   <v>       0.01666667 </v>
   <v>       0.01666667 </v>
   <v>       0.01666667 </v>
   <v>       0.01666667 </v>
   <v>       0.01666667 </v>
   <v>       0.01666667 </v>
   <v>       0.01666667 </v>
   <v>       0.01666667 </v>
   <v>       0.01666667 </v>
   <v>       0.01666667 </v>
   <v>       0.01666667 </v>
   <v>       0.01666667 </v>
   <v>       0.01666667 </v>
   <v>       0.01666667 </v>
   <v>       0.01666667 </v>
   <v>       0.01666667 </v>
   <v>       0.01666667 </v>
   <v>       0.01666667 </v>
   <v>       0.01666667 </v>
   <v>       0.01666667 </v>
   <v>       0.01666667 </v>
   <v>       0.01666667 </v>
   <v>       0.01666667 </v>
   <v>       0.01666667 </v>
   <v>       0.01666667 </v>
   <v>       0.01666667 </v>
   <v>       0.01666667 </v>
   <v>       0.01666667 </v>
   <v>       0.01666667 </v>
   <v>       0.01666667 </v>
  </varray>
 </kpoints>
 <parameters>
  <separator name="general" >
   <i type="string" name="SYSTEM">Simulation for cell shape cell volume r</i>
   <i type="logical" name="LCOMPAT"> F  </i>
  </separator>
  <separator name="electronic" >
   <i type="string" name="PREC">high</i>
   <i name="ENMAX">    500.00000000</i>
   <i name="ENAUG">    644.87300000</i>
   <i name="EDIFF">      0.00001000</i>
   <i type="int" name="IALGO">    38</i>
   <i type="int" name="IWAVPR">    10</i>
   <i type="int" name="NBANDS">   352</i>
   <i name="NELECT">    516.00000000</i>
   <i type="int" name="TURBO">     0</i>
   <i type="int" name="IRESTART">     0</i>
   <i type="int" name="NREBOOT">     0</i>
   <i type="int" name="NMIN">     0</i>
   <i name="EREF">      0.00000000</i>
   <separator name="electronic smearing" >
    <i type="int" name="ISMEAR">     0</i>
    <i name="SIGMA">      0.01000000</i>
    <i name="KSPACING">      0.50000000</i>
    <i type="logical" name="KGAMMA"> T  </i>
   </separator>
   <separator name="electronic projectors" >
    <i type="logical" name="LREAL"> T  </i>
    <v name="ROPT">     -0.00040000     -0.00040000     -0.00040000</v>
    <i type="int" name="LMAXPAW">  -100</i>
    <i type="int" name="LMAXMIX">     2</i>
    <i type="logical" name="NLSPLINE"> F  </i>
   </separator>
   <separator name="electronic startup" >
    <i type="int" name="ISTART">     1</i>
    <i type="int" name="ICHARG">    11</i>
    <i type="int" name="INIWAV">     1</i>
   </separator>
   <separator name="electronic spin" >
    <i type="int" name="ISPIN">     1</i>
    <i type="logical" name="LNONCOLLINEAR"> F  </i>
    <v name="MAGMOM">      1.00000000      1.00000000      1.00000000      1.00000000      1.00000000      1.00000000      1.00000000      1.00000000      1.00000000      1.00000000      1.00000000      1.00000000      1.00000000      1.00000000      1.00000000      1.00000000      1.00000000      1.00000000      1.00000000      1.00000000
      1.00000000      1.00000000      1.00000000      1.00000000      1.00000000      1.00000000      1.00000000      1.00000000      1.00000000      1.00000000      1.00000000      1.00000000      1.00000000      1.00000000      1.00000000      1.00000000      1.00000000      1.00000000      1.00000000      1.00000000
      1.00000000      1.00000000      1.00000000      1.00000000      1.00000000      1.00000000      1.00000000      1.00000000      1.00000000      1.00000000      1.00000000      1.00000000      1.00000000      1.00000000      1.00000000      1.00000000      1.00000000      1.00000000      1.00000000      1.00000000
      1.00000000      1.00000000      1.00000000      1.00000000      1.00000000      1.00000000      1.00000000      1.00000000      1.00000000      1.00000000      1.00000000      1.00000000      1.00000000      1.00000000      1.00000000      1.00000000      1.00000000      1.00000000      1.00000000      1.00000000
      1.00000000      1.00000000      1.00000000      1.00000000      1.00000000      1.00000000      1.00000000      1.00000000      1.00000000      1.00000000      1.00000000      1.00000000      1.00000000      1.00000000      1.00000000      1.00000000      1.00000000      1.00000000      1.00000000      1.00000000
      1.00000000      1.00000000      1.00000000      1.00000000      1.00000000      1.00000000      1.00000000      1.00000000      1.00000000      1.00000000      1.00000000      1.00000000      1.00000000      1.00000000      1.00000000      1.00000000      1.00000000      1.00000000      1.00000000      1.00000000
      1.00000000      1.00000000      1.00000000      1.00000000      1.00000000      1.00000000      1.00000000      1.00000000      1.00000000      1.00000000      1.00000000      1.00000000      1.00000000      1.00000000      1.00000000      1.00000000      1.00000000      1.00000000      1.00000000      1.00000000
      1.00000000      1.00000000      1.00000000      1.00000000      1.00000000      1.00000000      1.00000000      1.00000000      1.00000000      1.00000000      1.00000000      1.00000000      1.00000000      1.00000000      1.00000000      1.00000000      1.00000000      1.00000000      1.00000000      1.00000000
      1.00000000      1.00000000      1.00000000      1.00000000      1.00000000      1.00000000      1.00000000      1.00000000</v>
    <i name="NUPDOWN">     -1.00000000</i>
    <i type="logical" name="LSORBIT"> F  </i>
    <v name="SAXIS">      0.00000000      0.00000000      1.00000000</v>
    <i type="logical" name="LSPIRAL"> F  </i>
    <v name="QSPIRAL">      0.00000000      0.00000000      0.00000000</v>
    <i type="logical" name="LZEROZ"> F  </i>
   </separator>
   <separator name="electronic exchange-correlation" >
    <i type="logical" name="LASPH"> F  </i>
    <i type="logical" name="LMETAGGA"> F  </i>
   </separator>
   <separator name="electronic convergence" >
    <i type="int" name="NELM">   200</i>
    <i type="int" name="NELMDL">     0</i>
    <i type="int" name="NELMIN">     2</i>
    <i name="ENINI">    500.00000000</i>
    <separator name="electronic convergence detail" >
     <i type="logical" name="LDIAG"> T  </i>
     <i type="logical" name="LSUBROT"> F  </i>
     <i name="WEIMIN">      0.00000000</i>
     <i name="EBREAK">      0.00000001</i>
     <i name="DEPER">      0.30000000</i>
     <i type="int" name="NRMM">     4</i>
     <i name="TIME">      0.40000000</i>
    </separator>
   </separator>
   <separator name="electronic mixer" >
    <i name="AMIX">      0.40000000</i>
    <i name="BMIX">      1.00000000</i>
    <i name="AMIN">      0.10000000</i>
    <i name="AMIX_MAG">      1.60000000</i>
    <i name="BMIX_MAG">      1.00000000</i>
    <separator name="electronic mixer details" >
     <i type="int" name="IMIX">     4</i>
     <i type="logical" name="MIXFIRST"> F  </i>
     <i type="int" name="MAXMIX">   -45</i>
     <i name="WC">    100.00000000</i>
     <i type="int" name="INIMIX">     1</i>
     <i type="int" name="MIXPRE">     1</i>
     <i type="int" name="MREMOVE">     5</i>
    </separator>
   </separator>
   <separator name="electronic dipolcorrection" >
    <i type="logical" name="LDIPOL"> F  </i>
    <i type="logical" name="LMONO"> F  </i>
    <i type="int" name="IDIPOL">     0</i>
    <i name="EPSILON">      1.00000000</i>
    <v name="DIPOL">   -100.00000000   -100.00000000   -100.00000000</v>
    <i name="EFIELD">      0.00000000</i>
   </separator>
  </separator>
  <separator name="grids" >
   <i type="int" name="NGX">   250</i>
   <i type="int" name="NGY">   250</i>
   <i type="int" name="NGZ">   150</i>
   <i type="int" name="NGXF">   378</i>
   <i type="int" name="NGYF">   378</i>
   <i type="int" name="NGZF">   224</i>
   <i type="logical" name="ADDGRID"> F  </i>
  </separator>
  <separator name="ionic" >
   <i type="int" name="NSW">     0</i>
   <i type="int" name="IBRION">    -1</i>
   <i type="int" name="MDALGO">     0</i>
   <i type="int" name="ISIF">     2</i>
   <i name="PSTRESS">      0.00000000</i>
   <i name="EDIFFG">     -0.01000000</i>
   <i type="int" name="NFREE">     0</i>
   <i name="POTIM">      0.30000000</i>
   <i name="SMASS">     -3.00000000</i>
   <i name="SCALEE">      1.00000000</i>
  </separator>
  <separator name="ionic md" >
   <i name="TEBEG">      0.00010000</i>
   <i name="TEEND">      0.00010000</i>
   <i type="int" name="NBLOCK">     1</i>
   <i type="int" name="KBLOCK">     1</i>
   <i type="int" name="NPACO">   256</i>
   <i name="APACO">     16.00000000</i>
  </separator>
  <separator name="symmetry" >
   <i type="int" name="ISYM">     2</i>
   <i name="SYMPREC">      0.00001000</i>
  </separator>
  <separator name="dos" >
   <i type="int" name="LORBIT">     0</i>
   <v name="RWIGS">     -1.00000000     -1.00000000     -1.00000000</v>
   <i type="int" name="NEDOS">   301</i>
   <i name="EMIN">     10.00000000</i>
   <i name="EMAX">    -10.00000000</i>
   <i name="EFERMI">      0.00000000</i>
  </separator>
  <separator name="writing" >
   <i type="int" name="NWRITE">     0</i>
   <i type="logical" name="LWAVE"> F  </i>
   <i type="logical" name="LDOWNSAMPLE"> F  </i>
   <i type="logical" name="LCHARG"> F  </i>
   <i type="logical" name="LPARD"> F  </i>
   <i type="logical" name="LVTOT"> F  </i>
   <i type="logical" name="LVHAR"> F  </i>
   <i type="logical" name="LELF"> F  </i>
   <i type="logical" name="LOPTICS"> F  </i>
   <v name="STM">      0.00000000      0.00000000      0.00000000      0.00000000      0.00000000      0.00000000      0.00000000</v>
  </separator>
  <separator name="performance" >
   <i type="int" name="NPAR">    16</i>
   <i type="int" name="NSIM">     4</i>
   <i type="int" name="NBLK">    -1</i>
   <i type="logical" name="LPLANE"> T  </i>
   <i type="logical" name="LSCALAPACK"> T  </i>
   <i type="logical" name="LSCAAWARE"> F  </i>
   <i type="logical" name="LSCALU"> F  </i>
   <i type="logical" name="LASYNC"> F  </i>
   <i type="logical" name="LORBITALREAL"> F  </i>
  </separator>
  <separator name="miscellaneous" >
   <i type="int" name="IDIOT">     3</i>
   <i type="int" name="ISPECIAL">     0</i>
   <i type="logical" name="LMUSIC"> F  </i>
   <v name="POMASS">     14.00100000      1.00000000     12.01100000</v>
   <v name="DARWINR">      0.00000000      0.00000000      0.00000000</v>
   <v name="DARWINV">      1.00000000      1.00000000      1.00000000</v>
   <i type="logical" name="LCORR"> T  </i>
  </separator>
  <i type="logical" name="GGA_COMPAT"> T  </i>
  <i type="logical" name="LBERRY"> F  </i>
  <i type="int" name="ICORELEVEL">     0</i>
  <i type="logical" name="LDAU"> F  </i>
  <i type="int" name="I_CONSTRAINED_M">     0</i>
  <separator name="electronic exchange-correlation" >
   <i type="string" name="GGA">PE</i>
   <i type="int" name="VOSKOWN">     0</i>
   <i type="logical" name="LHFCALC"> F  </i>
   <i type="string" name="PRECFOCK"></i>
   <i type="logical" name="LSYMGRAD"> F  </i>
   <i type="logical" name="LHFONE"> F  </i>
   <i type="logical" name="LRHFCALC"> F  </i>
   <i type="logical" name="LTHOMAS"> F  </i>
   <i type="logical" name="LMODELHF"> F  </i>
   <i name="ENCUT4O">     -1.00000000</i>
   <i type="int" name="EXXOEP">     0</i>
   <i type="int" name="FOURORBIT">     0</i>
   <i name="AEXX">      0.00000000</i>
   <i name="HFALPHA">      0.00000000</i>
   <i name="MCALPHA">      0.00000000</i>
   <i name="ALDAX">      1.00000000</i>
   <i name="AGGAX">      1.00000000</i>
   <i name="ALDAC">      1.00000000</i>
   <i name="AGGAC">      1.00000000</i>
   <i type="int" name="NKREDX">     1</i>
   <i type="int" name="NKREDY">     1</i>
   <i type="int" name="NKREDZ">     1</i>
   <i type="logical" name="SHIFTRED"> F  </i>
   <i type="logical" name="ODDONLY"> F  </i>
   <i type="logical" name="EVENONLY"> F  </i>
   <i type="int" name="LMAXFOCK">     0</i>
   <i type="int" name="NMAXFOCKAE">     0</i>
   <i type="logical" name="LFOCKAEDFT"> F  </i>
   <i name="HFSCREEN">      0.00000000</i>
   <i name="HFSCREENC">      0.00000000</i>
   <i type="int" name="NBANDSGWLOW">     0</i>
  </separator>
  <separator name="vdW DFT" >
   <i type="logical" name="LUSE_VDW"> F  </i>
   <i name="Zab_VDW">     -0.84910000</i>
   <i name="PARAM1">      0.12340000</i>
   <i name="PARAM2">      1.00000000</i>
   <i name="PARAM3">      0.00000000</i>
  </separator>
  <separator name="model GW" >
   <i type="int" name="MODEL_GW">     0</i>
   <i name="MODEL_EPS0">     72.44614613</i>
   <i name="MODEL_ALPHA">      1.00000000</i>
  </separator>
  <separator name="linear response parameters" >
   <i type="logical" name="LEPSILON"> F  </i>
   <i type="logical" name="LRPA"> F  </i>
   <i type="logical" name="LNABLA"> F  </i>
   <i type="logical" name="LVEL"> F  </i>
   <i type="int" name="KINTER">     0</i>
   <i name="CSHIFT">      0.10000000</i>
   <i name="OMEGAMAX">     -1.00000000</i>
   <i name="DEG_THRESHOLD">      0.00200000</i>
   <i name="RTIME">     -0.10000000</i>
   <i name="WPLASMAI">      0.00000000</i>
   <v name="DFIELD">      0.00000000      0.00000000      0.00000000</v>
   <v name="WPLASMA">      0.00000000      0.00000000      0.00000000      0.00000000      0.00000000      0.00000000      0.00000000      0.00000000      0.00000000</v>
  </separator>
  <separator name="orbital magnetization" >
   <i type="logical" name="NUCIND"> F  </i>
   <v name="MAGPOS">      0.00000000      0.00000000      0.00000000</v>
   <i type="logical" name="LNICSALL"> T  </i>
   <i type="logical" name="ORBITALMAG"> F  </i>
   <i type="logical" name="LMAGBLOCH"> F  </i>
   <i type="logical" name="LCHIMAG"> F  </i>
   <i type="logical" name="LGAUGE"> T  </i>
   <i type="int" name="MAGATOM">     0</i>
   <v name="MAGDIPOL">      0.00000000      0.00000000      0.00000000</v>
   <v name="AVECCONST">      0.00000000      0.00000000      0.00000000</v>
  </separator>
  <separator name="response functions" >
   <i type="logical" name="LADDER"> F  </i>
   <i type="logical" name="LRPAFORCE"> F  </i>
   <i type="logical" name="LFXC"> F  </i>
   <i type="logical" name="LHARTREE"> T  </i>
   <i type="int" name="IBSE">     0</i>
   <v type="int" name="KPOINT">    -1     0     0     0</v>
   <i type="logical" name="LTCTE"> F  </i>
   <i type="logical" name="LTETE"> F  </i>
   <i type="logical" name="LTRIPLET"> F  </i>
   <i type="logical" name="LFXCEPS"> F  </i>
   <i type="logical" name="LFXHEG"> F  </i>
   <i type="int" name="NATURALO">     2</i>
   <i type="logical" name="L2ORDER"> F  </i>
   <i type="logical" name="LMP2LT"> F  </i>
   <i type="logical" name="LUSEW"> F  </i>
   <i name="ENCUTGW">     -2.00000000</i>
   <i name="ENCUTGWSOFT">     -2.00000000</i>
   <i name="ENCUTLF">     -1.00000000</i>
   <i type="int" name="LMAXMP2">    -1</i>
   <i name="SCISSOR">      0.00000000</i>
   <i type="int" name="NOMEGA">     0</i>
   <i type="int" name="NOMEGAR">     0</i>
   <i type="int" name="NBANDSGW">    -1</i>
   <i type="int" name="NBANDSO">    -1</i>
   <i type="int" name="NBANDSV">    -1</i>
   <i type="int" name="NELM">   200</i>
   <i type="int" name="NELMHF">     1</i>
   <i type="int" name="DIM">     3</i>
   <i type="int" name="ANTIRES">     0</i>
   <i name="OMEGAMAX">    -30.00000000</i>
   <i name="OMEGAMIN">    -30.00000000</i>
   <i name="OMEGATL">   -200.00000000</i>
   <i type="int" name="OMEGAGRID">   140</i>
   <i name="CSHIFT">     -0.10000000</i>
   <i type="logical" name="SELFENERGY"> F  </i>
   <i type="logical" name="LSPECTRAL"> F  </i>
   <i type="logical" name="LSPECTRALGW"> F  </i>
   <i type="logical" name="LSINGLES"> F  </i>
   <i type="logical" name="LFERMIGW"> F  </i>
   <i type="logical" name="ODDONLYGW"> F  </i>
   <i type="logical" name="EVENONLYGW"> F  </i>
   <i type="int" name="NKREDLFX">     1</i>
   <i type="int" name="NKREDLFY">     1</i>
   <i type="int" name="NKREDLFZ">     1</i>
   <i type="int" name="MAXMEM">  2800</i>
   <i type="int" name="TELESCOPE">     0</i>
   <i type="int" name="TAUPAR">     1</i>
   <i type="int" name="OMEGAPAR">    -1</i>
   <i name="LAMBDA">      1.00000000</i>
  </separator>
  <separator name="External order field" >
   <i name="OFIELD_KAPPA">      0.00000000</i>
   <v name="OFIELD_K">      0.00000000      0.00000000      0.00000000</v>
   <i name="OFIELD_Q6_NEAR">      0.00000000</i>
   <i name="OFIELD_Q6_FAR">      0.00000000</i>
   <i name="OFIELD_A">      0.00000000</i>
  </separator>
  <separator name="solvation model" >
   <i type="logical" name="LSOL"> F  </i>
  </separator>
 </parameters>
 <atominfo>
  <atoms>     168 </atoms>
  <types>       3 </types>
  <array name="atoms" >
   <dimension dim="1">ion</dimension>
   <field type="string">element</field>
   <field type="int">atomtype</field>
   <set>
    <rc><c>N </c><c>   1</c></rc>
    <rc><c>N </c><c>   1</c></rc>
    <rc><c>N </c><c>   1</c></rc>
    <rc><c>N </c><c>   1</c></rc>
    <rc><c>N </c><c>   1</c></rc>
    <rc><c>N </c><c>   1</c></rc>
    <rc><c>N </c><c>   1</c></rc>
    <rc><c>N </c><c>   1</c></rc>
    <rc><c>N </c><c>   1</c></rc>
    <rc><c>N </c><c>   1</c></rc>
    <rc><c>N </c><c>   1</c></rc>
    <rc><c>N </c><c>   1</c></rc>
    <rc><c>N </c><c>   1</c></rc>
    <rc><c>N </c><c>   1</c></rc>
    <rc><c>N </c><c>   1</c></rc>
    <rc><c>N </c><c>   1</c></rc>
    <rc><c>N </c><c>   1</c></rc>
    <rc><c>N </c><c>   1</c></rc>
    <rc><c>N </c><c>   1</c></rc>
    <rc><c>N </c><c>   1</c></rc>
    <rc><c>N </c><c>   1</c></rc>
    <rc><c>N </c><c>   1</c></rc>
    <rc><c>N </c><c>   1</c></rc>
    <rc><c>N </c><c>   1</c></rc>
    <rc><c>H </c><c>   2</c></rc>
    <rc><c>H </c><c>   2</c></rc>
    <rc><c>H </c><c>   2</c></rc>
    <rc><c>H </c><c>   2</c></rc>
    <rc><c>H </c><c>   2</c></rc>
    <rc><c>H </c><c>   2</c></rc>
    <rc><c>H </c><c>   2</c></rc>
    <rc><c>H </c><c>   2</c></rc>
    <rc><c>H </c><c>   2</c></rc>
    <rc><c>H </c><c>   2</c></rc>
    <rc><c>H </c><c>   2</c></rc>
    <rc><c>H </c><c>   2</c></rc>
    <rc><c>H </c><c>   2</c></rc>
    <rc><c>H </c><c>   2</c></rc>
    <rc><c>H </c><c>   2</c></rc>
    <rc><c>H </c><c>   2</c></rc>
    <rc><c>H </c><c>   2</c></rc>
    <rc><c>H </c><c>   2</c></rc>
    <rc><c>H </c><c>   2</c></rc>
    <rc><c>H </c><c>   2</c></rc>
    <rc><c>H </c><c>   2</c></rc>
    <rc><c>H </c><c>   2</c></rc>
    <rc><c>H </c><c>   2</c></rc>
    <rc><c>H </c><c>   2</c></rc>
    <rc><c>H </c><c>   2</c></rc>
    <rc><c>H </c><c>   2</c></rc>
    <rc><c>H </c><c>   2</c></rc>
    <rc><c>H </c><c>   2</c></rc>
    <rc><c>H </c><c>   2</c></rc>
    <rc><c>H </c><c>   2</c></rc>
    <rc><c>H </c><c>   2</c></rc>
    <rc><c>H </c><c>   2</c></rc>
    <rc><c>H </c><c>   2</c></rc>
    <rc><c>H </c><c>   2</c></rc>
    <rc><c>H </c><c>   2</c></rc>
    <rc><c>H </c><c>   2</c></rc>
    <rc><c>H </c><c>   2</c></rc>
    <rc><c>H </c><c>   2</c></rc>
    <rc><c>H </c><c>   2</c></rc>
    <rc><c>H </c><c>   2</c></rc>
    <rc><c>H </c><c>   2</c></rc>
    <rc><c>H </c><c>   2</c></rc>
    <rc><c>H </c><c>   2</c></rc>
    <rc><c>H </c><c>   2</c></rc>
    <rc><c>H </c><c>   2</c></rc>
    <rc><c>H </c><c>   2</c></rc>
    <rc><c>H </c><c>   2</c></rc>
    <rc><c>H </c><c>   2</c></rc>
    <rc><c>H </c><c>   2</c></rc>
    <rc><c>H </c><c>   2</c></rc>
    <rc><c>H </c><c>   2</c></rc>
    <rc><c>H </c><c>   2</c></rc>
    <rc><c>H </c><c>   2</c></rc>
    <rc><c>H </c><c>   2</c></rc>
    <rc><c>H </c><c>   2</c></rc>
    <rc><c>H </c><c>   2</c></rc>
    <rc><c>H </c><c>   2</c></rc>
    <rc><c>H </c><c>   2</c></rc>
    <rc><c>H </c><c>   2</c></rc>
    <rc><c>H </c><c>   2</c></rc>
    <rc><c>C </c><c>   3</c></rc>
    <rc><c>C </c><c>   3</c></rc>
    <rc><c>C </c><c>   3</c></rc>
    <rc><c>C </c><c>   3</c></rc>
    <rc><c>C </c><c>   3</c></rc>
    <rc><c>C </c><c>   3</c></rc>
    <rc><c>C </c><c>   3</c></rc>
    <rc><c>C </c><c>   3</c></rc>
    <rc><c>C </c><c>   3</c></rc>
    <rc><c>C </c><c>   3</c></rc>
    <rc><c>C </c><c>   3</c></rc>
    <rc><c>C </c><c>   3</c></rc>
    <rc><c>C </c><c>   3</c></rc>
    <rc><c>C </c><c>   3</c></rc>
    <rc><c>C </c><c>   3</c></rc>
    <rc><c>C </c><c>   3</c></rc>
    <rc><c>C </c><c>   3</c></rc>
    <rc><c>C </c><c>   3</c></rc>
    <rc><c>C </c><c>   3</c></rc>
    <rc><c>C </c><c>   3</c></rc>
    <rc><c>C </c><c>   3</c></rc>
    <rc><c>C </c><c>   3</c></rc>
    <rc><c>C </c><c>   3</c></rc>
    <rc><c>C </c><c>   3</c></rc>
    <rc><c>C </c><c>   3</c></rc>
    <rc><c>C </c><c>   3</c></rc>
    <rc><c>C </c><c>   3</c></rc>
    <rc><c>C </c><c>   3</c></rc>
    <rc><c>C </c><c>   3</c></rc>
    <rc><c>C </c><c>   3</c></rc>
    <rc><c>C </c><c>   3</c></rc>
    <rc><c>C </c><c>   3</c></rc>
    <rc><c>C </c><c>   3</c></rc>
    <rc><c>C </c><c>   3</c></rc>
    <rc><c>C </c><c>   3</c></rc>
    <rc><c>C </c><c>   3</c></rc>
    <rc><c>C </c><c>   3</c></rc>
    <rc><c>C </c><c>   3</c></rc>
    <rc><c>C </c><c>   3</c></rc>
    <rc><c>C </c><c>   3</c></rc>
    <rc><c>C </c><c>   3</c></rc>
    <rc><c>C </c><c>   3</c></rc>
    <rc><c>C </c><c>   3</c></rc>
    <rc><c>C </c><c>   3</c></rc>
    <rc><c>C </c><c>   3</c></rc>
    <rc><c>C </c><c>   3</c></rc>
    <rc><c>C </c><c>   3</c></rc>
    <rc><c>C </c><c>   3</c></rc>
    <rc><c>C </c><c>   3</c></rc>
    <rc><c>C </c><c>   3</c></rc>
    <rc><c>C </c><c>   3</c></rc>
    <rc><c>C </c><c>   3</c></rc>
    <rc><c>C </c><c>   3</c></rc>
    <rc><c>C </c><c>   3</c></rc>
    <rc><c>C </c><c>   3</c></rc>
    <rc><c>C </c><c>   3</c></rc>
    <rc><c>C </c><c>   3</c></rc>
    <rc><c>C </c><c>   3</c></rc>
    <rc><c>C </c><c>   3</c></rc>
    <rc><c>C </c><c>   3</c></rc>
    <rc><c>C </c><c>   3</c></rc>
    <rc><c>C </c><c>   3</c></rc>
    <rc><c>C </c><c>   3</c></rc>
    <rc><c>C </c><c>   3</c></rc>
    <rc><c>C </c><c>   3</c></rc>
    <rc><c>C </c><c>   3</c></rc>
    <rc><c>C </c><c>   3</c></rc>
    <rc><c>C </c><c>   3</c></rc>
    <rc><c>C </c><c>   3</c></rc>
    <rc><c>C </c><c>   3</c></rc>
    <rc><c>C </c><c>   3</c></rc>
    <rc><c>C </c><c>   3</c></rc>
    <rc><c>C </c><c>   3</c></rc>
    <rc><c>C </c><c>   3</c></rc>
    <rc><c>C </c><c>   3</c></rc>
    <rc><c>C </c><c>   3</c></rc>
    <rc><c>C </c><c>   3</c></rc>
    <rc><c>C </c><c>   3</c></rc>
    <rc><c>C </c><c>   3</c></rc>
    <rc><c>C </c><c>   3</c></rc>
    <rc><c>C </c><c>   3</c></rc>
    <rc><c>C </c><c>   3</c></rc>
    <rc><c>C </c><c>   3</c></rc>
    <rc><c>C </c><c>   3</c></rc>
   </set>
  </array>
  <array name="atomtypes" >
   <dimension dim="1">type</dimension>
   <field type="int">atomspertype</field>
   <field type="string">element</field>
   <field>mass</field>
   <field>valence</field>
   <field type="string">pseudopotential</field>
   <set>
    <rc><c>  24</c><c>N </c><c>     14.00100000</c><c>      5.00000000</c><c>  PAW_PBE N 08Apr2002                   </c></rc>
    <rc><c>  60</c><c>H </c><c>      1.00000000</c><c>      1.00000000</c><c>  PAW_PBE H 15Jun2001                   </c></rc>
    <rc><c>  84</c><c>C </c><c>     12.01100000</c><c>      4.00000000</c><c>  PAW_PBE C 08Apr2002                   </c></rc>
   </set>
  </array>
 </atominfo>
 <structure name="initialpos" >
  <crystal>
   <varray name="basis" >
    <v>      34.22130522      -0.01151481       0.00000000 </v>
    <v>     -17.11023781      29.64361121       0.00000000 </v>
    <v>       0.00000000       0.00000000      20.00000000 </v>
   </varray>
   <i name="volume">  20284.92091520 </i>
   <varray name="rec_basis" >
    <v>       0.02922724       0.01686991       0.00000000 </v>
    <v>       0.00001135       0.03374063       0.00000000 </v>
    <v>       0.00000000       0.00000000       0.05000000 </v>
   </varray>
  </crystal>
  <varray name="positions" >
   <v>       0.91141468       0.09010089       0.43191565 </v>
   <v>       0.88925919       0.14239188       0.36174721 </v>
   <v>       0.90588931       0.83527342       0.43236341 </v>
   <v>       0.85476056       0.76098657       0.36145303 </v>
   <v>       0.15955196       0.08371089       0.43239852 </v>
   <v>       0.23386898       0.10668650       0.36188940 </v>
   <v>       0.84365509       0.47522647       0.43284053 </v>
   <v>       0.84247746       0.41066099       0.35862462 </v>
   <v>       0.52037206       0.38213677       0.43209210 </v>
   <v>       0.58533819       0.44584753       0.35808017 </v>
   <v>       0.61366121       0.15423393       0.43159033 </v>
   <v>       0.54931960       0.15415752       0.35814545 </v>
   <v>       0.86269818       0.13880526       0.54029813 </v>
   <v>       0.91522157       0.11725457       0.61039692 </v>
   <v>       0.85560165       0.73784874       0.54055686 </v>
   <v>       0.87453498       0.81181297       0.60964244 </v>
   <v>       0.25690572       0.13156572       0.54084316 </v>
   <v>       0.18255356       0.07794127       0.61045383 </v>
   <v>       0.84623384       0.38976324       0.53769639 </v>
   <v>       0.84601622       0.45400397       0.61198173 </v>
   <v>       0.60601326       0.46983329       0.53728968 </v>
   <v>       0.54210900       0.40545277       0.61129669 </v>
   <v>       0.52574355       0.15089236       0.53755995 </v>
   <v>       0.58987607       0.15027007       0.61094883 </v>
   <v>       0.02893418       0.95622662       0.49106713 </v>
   <v>       0.03849045       0.08661755       0.49033016 </v>
   <v>       0.90807282       0.96574353       0.49134753 </v>
   <v>       0.73948293       0.13952813       0.49155161 </v>
   <v>       0.86340860       0.26688319       0.47476889 </v>
   <v>       0.73620522       0.26363615       0.48676898 </v>
   <v>       0.85633531       0.61436585       0.49201094 </v>
   <v>       0.72860643       0.61005321       0.47448180 </v>
   <v>       0.73261416       0.48655553       0.48795812 </v>
   <v>       0.38041147       0.25576612       0.49140385 </v>
   <v>       0.38469057       0.13227356       0.47542873 </v>
   <v>       0.50822817       0.25984616       0.48799115 </v>
   <v>       0.84205726       0.18370476       0.37513632 </v>
   <v>       0.93630857       0.05329360       0.38436552 </v>
   <v>       0.89975418       0.11902152       0.36332711 </v>
   <v>       0.87885721       0.14950934       0.31841346 </v>
   <v>       0.81320018       0.67232818       0.37481856 </v>
   <v>       0.94364914       0.89702126       0.38529689 </v>
   <v>       0.87814326       0.79484518       0.36344783 </v>
   <v>       0.84830724       0.74354242       0.31814310 </v>
   <v>       0.32243823       0.15418613       0.37520660 </v>
   <v>       0.09794196       0.05932501       0.38472807 </v>
   <v>       0.19995942       0.09603775       0.36376144 </v>
   <v>       0.25137296       0.11755623       0.31859484 </v>
   <v>       0.81626836       0.32421066       0.37140619 </v>
   <v>       0.83205157       0.52253678       0.38634769 </v>
   <v>       0.83066425       0.39199546       0.31643468 </v>
   <v>       0.84392455       0.44136132       0.36335039 </v>
   <v>       0.67184957       0.50601860       0.37133696 </v>
   <v>       0.47265606       0.32335493       0.38569907 </v>
   <v>       0.60413269       0.45251487       0.31605471 </v>
   <v>       0.55463054       0.41657263       0.36262716 </v>
   <v>       0.48843502       0.17952259       0.37172162 </v>
   <v>       0.67258176       0.16603982       0.38483828 </v>
   <v>       0.54193166       0.16554942       0.31600661 </v>
   <v>       0.57889499       0.15328299       0.36248869 </v>
   <v>       0.95509399       0.06860546       0.59767043 </v>
   <v>       0.82627145       0.16395468       0.58827584 </v>
   <v>       0.92241992       0.10695979       0.65378019 </v>
   <v>       0.89181114       0.12770067       0.60881363 </v>
   <v>       0.92383938       0.90034587       0.59744642 </v>
   <v>       0.83000028       0.67622797       0.58860344 </v>
   <v>       0.88426526       0.82928012       0.65310666 </v>
   <v>       0.86466005       0.77808542       0.60857324 </v>
   <v>       0.09412862       0.03852839       0.59758212 </v>
   <v>       0.31854477       0.16775346       0.58885433 </v>
   <v>       0.16498929       0.07061351       0.65378621 </v>
   <v>       0.21638093       0.10148519       0.60924024 </v>
   <v>       0.81648874       0.51186008       0.60045763 </v>
   <v>       0.83757621       0.33194729       0.58440685 </v>
   <v>       0.84805900       0.42507630       0.60730393 </v>
   <v>       0.83512731       0.46107782       0.65491593 </v>
   <v>       0.48343942       0.31832846       0.59977724 </v>
   <v>       0.66373001       0.51885659       0.58442916 </v>
   <v>       0.57109208       0.43639014       0.60660118 </v>
   <v>       0.53482331       0.38743500       0.65420486 </v>
   <v>       0.67701787       0.17865683       0.59939039 </v>
   <v>       0.47666846       0.15933279       0.58499772 </v>
   <v>       0.55903323       0.14855006       0.60649041 </v>
   <v>       0.60780993       0.16053734       0.65398854 </v>
   <v>       0.97084024       0.02924980       0.49074037 </v>
   <v>       0.94482473       0.98203771       0.49103873 </v>
   <v>       0.96544665       0.95550567       0.49110344 </v>
   <v>       0.01265969       0.97669484       0.49084494 </v>
   <v>       0.03917940       0.02384576       0.49069867 </v>
   <v>       0.01800174       0.04987301       0.49041987 </v>
   <v>       0.80245003       0.27097261       0.48069836 </v>
   <v>       0.75532511       0.24594703       0.48588204 </v>
   <v>       0.73212660       0.19872720       0.48970336 </v>
   <v>       0.75689464       0.17628201       0.48873163 </v>
   <v>       0.80412753       0.20074418       0.48307907 </v>
   <v>       0.82669040       0.24802103       0.47898837 </v>
   <v>       0.72490819       0.54521583       0.48100504 </v>
   <v>       0.75012237       0.52335712       0.48678657 </v>
   <v>       0.79734731       0.54763500       0.49061202 </v>
   <v>       0.81957659       0.59483863       0.48915515 </v>
   <v>       0.79491288       0.61737004       0.48317055 </v>
   <v>       0.74764566       0.59240798       0.47897825 </v>
   <v>       0.44956541       0.19346047       0.48146149 </v>
   <v>       0.47141651       0.24054953       0.48682274 </v>
   <v>       0.44717487       0.26353078       0.49023977 </v>
   <v>       0.39995711       0.23855208       0.48885351 </v>
   <v>       0.37742176       0.19131790       0.48339980 </v>
   <v>       0.40236603       0.16898525       0.47957353 </v>
   <v>       0.93214380       0.06589227       0.43248536 </v>
   <v>       0.87939397       0.13170206       0.48325518 </v>
   <v>       0.87224852       0.14780211       0.42048386 </v>
   <v>       0.84779719       0.17087355       0.42196140 </v>
   <v>       0.83028200       0.17681311       0.48138699 </v>
   <v>       0.93007579       0.88021150       0.43311304 </v>
   <v>       0.86342888       0.76163671       0.48334399 </v>
   <v>       0.84839425       0.73845073       0.42034246 </v>
   <v>       0.82539082       0.69091605       0.42176941 </v>
   <v>       0.81866059       0.66746101       0.48141141 </v>
   <v>       0.11461362       0.06304308       0.43281404 </v>
   <v>       0.23311071       0.11536034       0.48368366 </v>
   <v>       0.25633117       0.12323426       0.42073829 </v>
   <v>       0.30386672       0.14790217       0.42214785 </v>
   <v>       0.32731811       0.16490544       0.48171903 </v>
   <v>       0.82362073       0.32093361       0.47789220 </v>
   <v>       0.84495753       0.41109043       0.48145034 </v>
   <v>       0.83825223       0.38896847       0.41763226 </v>
   <v>       0.82574733       0.34299261       0.41844481 </v>
   <v>       0.83297309       0.50771225       0.43429722 </v>
   <v>       0.67496059       0.51625556       0.47791794 </v>
   <v>       0.58474692       0.44741331       0.48090247 </v>
   <v>       0.60699574       0.46305166       0.41722986 </v>
   <v>       0.65299157       0.49650779       0.41830908 </v>
   <v>       0.48757319       0.33906467       0.43362954 </v>
   <v>       0.47865325       0.17263852       0.47838671 </v>
   <v>       0.54804435       0.15211739       0.48099042 </v>
   <v>       0.53207383       0.15839463       0.41737509 </v>
   <v>       0.49825327       0.17041820       0.41863593 </v>
   <v>       0.65675056       0.16459441       0.43292164 </v>
   <v>       0.94846053       0.05691370       0.49143693 </v>
   <v>       0.90424530       0.10683382       0.48889703 </v>
   <v>       0.92019776       0.09971209       0.55184374 </v>
   <v>       0.94260860       0.07462234       0.55072582 </v>
   <v>       0.83875233       0.15979432       0.54004205 </v>
   <v>       0.93779005       0.90548170       0.49181846 </v>
   <v>       0.88799301       0.81135300       0.48901426 </v>
   <v>       0.89361324       0.83439246       0.55159880 </v>
   <v>       0.91876158       0.88188857       0.55066683 </v>
   <v>       0.83476530       0.69291882       0.54027336 </v>
   <v>       0.08921130       0.04618210       0.49155516 </v>
   <v>       0.18338020       0.09033410       0.48929502 </v>
   <v>       0.16017766       0.07371465       0.55198101 </v>
   <v>       0.11267984       0.05138678       0.55074485 </v>
   <v>       0.30184881       0.15568825       0.54055078 </v>
   <v>       0.83673321       0.34692672       0.53656798 </v>
   <v>       0.84452861       0.45379592       0.48920461 </v>
   <v>       0.83917797       0.46992909       0.55325798 </v>
   <v>       0.82518436       0.50231471       0.55296229 </v>
   <v>       0.82062975       0.52078582       0.49352410 </v>
   <v>       0.64886276       0.50315865       0.53647184 </v>
   <v>       0.54193405       0.40433582       0.48848638 </v>
   <v>       0.52581216       0.38285575       0.55255826 </v>
   <v>       0.49302934       0.33659611       0.55229667 </v>
   <v>       0.47428535       0.31367104       0.49290364 </v>
   <v>       0.49218737       0.16006613       0.53692452 </v>
   <v>       0.59127514       0.15268403       0.48821257 </v>
   <v>       0.61262903       0.15728173       0.55218301 </v>
   <v>       0.65888273       0.17071402       0.55183885 </v>
   <v>       0.68197944       0.17581646       0.49230055 </v>
  </varray>
 </structure>
 <calculation>
  <scstep>
   <time name="dav">  665.97  672.27</time>
   <time name="total">  666.34  672.66</time>
   <energy>
    <i name="alphaZ">     60.75600732 </i>
    <i name="ewald">  69426.92241567 </i>
    <i name="hartreedc"> -85439.00025756 </i>
    <i name="XCdc">   1810.42702193 </i>
    <i name="pawpsdc">  48532.92941653 </i>
    <i name="pawaedc"> -48626.70316264 </i>
    <i name="eentropy">     -0.00000000 </i>
    <i name="bandstr">  -6399.81265007 </i>
    <i name="atom">  19458.48960022 </i>
    <i name="e_fr_energy">  -1175.99160859 </i>
    <i name="e_wo_entrp">  -1175.99160859 </i>
    <i name="e_0_energy">  -1175.99160859 </i>
   </energy>
  </scstep>
  <scstep>
   <time name="dav">  744.99  752.03</time>
   <time name="total">  745.01  752.05</time>
   <energy>
    <i name="e_fr_energy">  -1176.43340219 </i>
    <i name="e_wo_entrp">  -1176.43340219 </i>
    <i name="e_0_energy">  -1176.43340219 </i>
   </energy>
  </scstep>
  <scstep>
   <time name="dav">  813.50  821.29</time>
   <time name="total">  813.53  821.32</time>
   <energy>
    <i name="e_fr_energy">  -1176.44599013 </i>
    <i name="e_wo_entrp">  -1176.44599013 </i>
    <i name="e_0_energy">  -1176.44599013 </i>
   </energy>
  </scstep>
  <scstep>
   <time name="dav">  739.76  746.71</time>
   <time name="total">  739.79  746.73</time>
   <energy>
    <i name="e_fr_energy">  -1176.44622510 </i>
    <i name="e_wo_entrp">  -1176.44622510 </i>
    <i name="e_0_energy">  -1176.44622510 </i>
   </energy>
  </scstep>
  <scstep>
   <time name="dav">  677.01  683.35</time>
   <time name="total">  677.02  683.37</time>
   <energy>
    <i name="e_fr_energy">  -1176.44623651 </i>
    <i name="e_wo_entrp">  -1176.44623651 </i>
    <i name="e_0_energy">  -1176.44623651 </i>
   </energy>
  </scstep>
  <scstep>
   <time name="dav">  558.76  564.00</time>
   <time name="total">  558.77  564.01</time>
   <energy>
    <i name="alphaZ">     60.75600732 </i>
    <i name="ewald">  69426.92241567 </i>
    <i name="hartreedc"> -85439.00025756 </i>
    <i name="XCdc">   1810.42702193 </i>
    <i name="pawpsdc">  48532.92941653 </i>
    <i name="pawaedc"> -48626.70316264 </i>
    <i name="eentropy">     -0.00000000 </i>
    <i name="bandstr">  -6400.26727852 </i>
    <i name="atom">  19458.48960022 </i>
    <i name="e_fr_energy">  -1176.44623705 </i>
    <i name="e_wo_entrp">  -1176.44623705 </i>
    <i name="e_0_energy">  -1176.44623705 </i>
   </energy>
  </scstep>
  <structure>
   <crystal>
    <varray name="basis" >
     <v>      34.22130522      -0.01151481       0.00000000 </v>
     <v>     -17.11023781      29.64361121       0.00000000 </v>
     <v>       0.00000000       0.00000000      20.00000000 </v>
    </varray>
    <i name="volume">  20284.92091520 </i>
    <varray name="rec_basis" >
     <v>       0.02922724       0.01686991       0.00000000 </v>
     <v>       0.00001135       0.03374063       0.00000000 </v>
     <v>       0.00000000       0.00000000       0.05000000 </v>
    </varray>
   </crystal>
   <varray name="positions" >
    <v>       0.91141468       0.09010089       0.43191565 </v>
    <v>       0.88925919       0.14239188       0.36174721 </v>
    <v>       0.90588931       0.83527342       0.43236341 </v>
    <v>       0.85476056       0.76098657       0.36145303 </v>
    <v>       0.15955196       0.08371089       0.43239852 </v>
    <v>       0.23386898       0.10668650       0.36188940 </v>
    <v>       0.84365509       0.47522647       0.43284053 </v>
    <v>       0.84247746       0.41066099       0.35862462 </v>
    <v>       0.52037206       0.38213677       0.43209210 </v>
    <v>       0.58533819       0.44584753       0.35808017 </v>
    <v>       0.61366121       0.15423393       0.43159033 </v>
    <v>       0.54931960       0.15415752       0.35814545 </v>
    <v>       0.86269818       0.13880526       0.54029813 </v>
    <v>       0.91522157       0.11725457       0.61039692 </v>
    <v>       0.85560165       0.73784874       0.54055686 </v>
    <v>       0.87453498       0.81181297       0.60964244 </v>
    <v>       0.25690572       0.13156572       0.54084316 </v>
    <v>       0.18255356       0.07794127       0.61045383 </v>
    <v>       0.84623384       0.38976324       0.53769639 </v>
    <v>       0.84601622       0.45400397       0.61198173 </v>
    <v>       0.60601326       0.46983329       0.53728968 </v>
    <v>       0.54210900       0.40545277       0.61129669 </v>
    <v>       0.52574355       0.15089236       0.53755995 </v>
    <v>       0.58987607       0.15027007       0.61094883 </v>
    <v>       0.02893418       0.95622662       0.49106713 </v>
    <v>       0.03849045       0.08661755       0.49033016 </v>
    <v>       0.90807282       0.96574353       0.49134753 </v>
    <v>       0.73948293       0.13952813       0.49155161 </v>
    <v>       0.86340860       0.26688319       0.47476889 </v>
    <v>       0.73620522       0.26363615       0.48676898 </v>
    <v>       0.85633531       0.61436585       0.49201094 </v>
    <v>       0.72860643       0.61005321       0.47448180 </v>
    <v>       0.73261416       0.48655553       0.48795812 </v>
    <v>       0.38041147       0.25576612       0.49140385 </v>
    <v>       0.38469057       0.13227356       0.47542873 </v>
    <v>       0.50822817       0.25984616       0.48799115 </v>
    <v>       0.84205726       0.18370476       0.37513632 </v>
    <v>       0.93630857       0.05329360       0.38436552 </v>
    <v>       0.89975418       0.11902152       0.36332711 </v>
    <v>       0.87885721       0.14950934       0.31841346 </v>
    <v>       0.81320018       0.67232818       0.37481856 </v>
    <v>       0.94364914       0.89702126       0.38529689 </v>
    <v>       0.87814326       0.79484518       0.36344783 </v>
    <v>       0.84830724       0.74354242       0.31814310 </v>
    <v>       0.32243823       0.15418613       0.37520660 </v>
    <v>       0.09794196       0.05932501       0.38472807 </v>
    <v>       0.19995942       0.09603775       0.36376144 </v>
    <v>       0.25137296       0.11755623       0.31859484 </v>
    <v>       0.81626836       0.32421066       0.37140619 </v>
    <v>       0.83205157       0.52253678       0.38634769 </v>
    <v>       0.83066425       0.39199546       0.31643468 </v>
    <v>       0.84392455       0.44136132       0.36335039 </v>
    <v>       0.67184957       0.50601860       0.37133696 </v>
    <v>       0.47265606       0.32335493       0.38569907 </v>
    <v>       0.60413269       0.45251487       0.31605471 </v>
    <v>       0.55463054       0.41657263       0.36262716 </v>
    <v>       0.48843502       0.17952259       0.37172162 </v>
    <v>       0.67258176       0.16603982       0.38483828 </v>
    <v>       0.54193166       0.16554942       0.31600661 </v>
    <v>       0.57889499       0.15328299       0.36248869 </v>
    <v>       0.95509399       0.06860546       0.59767043 </v>
    <v>       0.82627145       0.16395468       0.58827584 </v>
    <v>       0.92241992       0.10695979       0.65378019 </v>
    <v>       0.89181114       0.12770067       0.60881363 </v>
    <v>       0.92383938       0.90034587       0.59744642 </v>
    <v>       0.83000028       0.67622797       0.58860344 </v>
    <v>       0.88426526       0.82928012       0.65310666 </v>
    <v>       0.86466005       0.77808542       0.60857324 </v>
    <v>       0.09412862       0.03852839       0.59758212 </v>
    <v>       0.31854477       0.16775346       0.58885433 </v>
    <v>       0.16498929       0.07061351       0.65378621 </v>
    <v>       0.21638093       0.10148519       0.60924024 </v>
    <v>       0.81648874       0.51186008       0.60045763 </v>
    <v>       0.83757621       0.33194729       0.58440685 </v>
    <v>       0.84805900       0.42507630       0.60730393 </v>
    <v>       0.83512731       0.46107782       0.65491593 </v>
    <v>       0.48343942       0.31832846       0.59977724 </v>
    <v>       0.66373001       0.51885659       0.58442916 </v>
    <v>       0.57109208       0.43639014       0.60660118 </v>
    <v>       0.53482331       0.38743500       0.65420486 </v>
    <v>       0.67701787       0.17865683       0.59939039 </v>
    <v>       0.47666846       0.15933279       0.58499772 </v>
    <v>       0.55903323       0.14855006       0.60649041 </v>
    <v>       0.60780993       0.16053734       0.65398854 </v>
    <v>       0.97084024       0.02924980       0.49074037 </v>
    <v>       0.94482473       0.98203771       0.49103873 </v>
    <v>       0.96544665       0.95550567       0.49110344 </v>
    <v>       0.01265969       0.97669484       0.49084494 </v>
    <v>       0.03917940       0.02384576       0.49069867 </v>
    <v>       0.01800174       0.04987301       0.49041987 </v>
    <v>       0.80245003       0.27097261       0.48069836 </v>
    <v>       0.75532511       0.24594703       0.48588204 </v>
    <v>       0.73212660       0.19872720       0.48970336 </v>
    <v>       0.75689464       0.17628201       0.48873163 </v>
    <v>       0.80412753       0.20074418       0.48307907 </v>
    <v>       0.82669040       0.24802103       0.47898837 </v>
    <v>       0.72490819       0.54521583       0.48100504 </v>
    <v>       0.75012237       0.52335712       0.48678657 </v>
    <v>       0.79734731       0.54763500       0.49061202 </v>
    <v>       0.81957659       0.59483863       0.48915515 </v>
    <v>       0.79491288       0.61737004       0.48317055 </v>
    <v>       0.74764566       0.59240798       0.47897825 </v>
    <v>       0.44956541       0.19346047       0.48146149 </v>
    <v>       0.47141651       0.24054953       0.48682274 </v>
    <v>       0.44717487       0.26353078       0.49023977 </v>
    <v>       0.39995711       0.23855208       0.48885351 </v>
    <v>       0.37742176       0.19131790       0.48339980 </v>
    <v>       0.40236603       0.16898525       0.47957353 </v>
    <v>       0.93214380       0.06589227       0.43248536 </v>
    <v>       0.87939397       0.13170206       0.48325518 </v>
    <v>       0.87224852       0.14780211       0.42048386 </v>
    <v>       0.84779719       0.17087355       0.42196140 </v>
    <v>       0.83028200       0.17681311       0.48138699 </v>
    <v>       0.93007579       0.88021150       0.43311304 </v>
    <v>       0.86342888       0.76163671       0.48334399 </v>
    <v>       0.84839425       0.73845073       0.42034246 </v>
    <v>       0.82539082       0.69091605       0.42176941 </v>
    <v>       0.81866059       0.66746101       0.48141141 </v>
    <v>       0.11461362       0.06304308       0.43281404 </v>
    <v>       0.23311071       0.11536034       0.48368366 </v>
    <v>       0.25633117       0.12323426       0.42073829 </v>
    <v>       0.30386672       0.14790217       0.42214785 </v>
    <v>       0.32731811       0.16490544       0.48171903 </v>
    <v>       0.82362073       0.32093361       0.47789220 </v>
    <v>       0.84495753       0.41109043       0.48145034 </v>
    <v>       0.83825223       0.38896847       0.41763226 </v>
    <v>       0.82574733       0.34299261       0.41844481 </v>
    <v>       0.83297309       0.50771225       0.43429722 </v>
    <v>       0.67496059       0.51625556       0.47791794 </v>
    <v>       0.58474692       0.44741331       0.48090247 </v>
    <v>       0.60699574       0.46305166       0.41722986 </v>
    <v>       0.65299157       0.49650779       0.41830908 </v>
    <v>       0.48757319       0.33906467       0.43362954 </v>
    <v>       0.47865325       0.17263852       0.47838671 </v>
    <v>       0.54804435       0.15211739       0.48099042 </v>
    <v>       0.53207383       0.15839463       0.41737509 </v>
    <v>       0.49825327       0.17041820       0.41863593 </v>
    <v>       0.65675056       0.16459441       0.43292164 </v>
    <v>       0.94846053       0.05691370       0.49143693 </v>
    <v>       0.90424530       0.10683382       0.48889703 </v>
    <v>       0.92019776       0.09971209       0.55184374 </v>
    <v>       0.94260860       0.07462234       0.55072582 </v>
    <v>       0.83875233       0.15979432       0.54004205 </v>
    <v>       0.93779005       0.90548170       0.49181846 </v>
    <v>       0.88799301       0.81135300       0.48901426 </v>
    <v>       0.89361324       0.83439246       0.55159880 </v>
    <v>       0.91876158       0.88188857       0.55066683 </v>
    <v>       0.83476530       0.69291882       0.54027336 </v>
    <v>       0.08921130       0.04618210       0.49155516 </v>
    <v>       0.18338020       0.09033410       0.48929502 </v>
    <v>       0.16017766       0.07371465       0.55198101 </v>
    <v>       0.11267984       0.05138678       0.55074485 </v>
    <v>       0.30184881       0.15568825       0.54055078 </v>
    <v>       0.83673321       0.34692672       0.53656798 </v>
    <v>       0.84452861       0.45379592       0.48920461 </v>
    <v>       0.83917797       0.46992909       0.55325798 </v>
    <v>       0.82518436       0.50231471       0.55296229 </v>
    <v>       0.82062975       0.52078582       0.49352410 </v>
    <v>       0.64886276       0.50315865       0.53647184 </v>
    <v>       0.54193405       0.40433582       0.48848638 </v>
    <v>       0.52581216       0.38285575       0.55255826 </v>
    <v>       0.49302934       0.33659611       0.55229667 </v>
    <v>       0.47428535       0.31367104       0.49290364 </v>
    <v>       0.49218737       0.16006613       0.53692452 </v>
    <v>       0.59127514       0.15268403       0.48821257 </v>
    <v>       0.61262903       0.15728173       0.55218301 </v>
    <v>       0.65888273       0.17071402       0.55183885 </v>
    <v>       0.68197944       0.17581646       0.49230055 </v>
   </varray>
  </structure>
  <varray name="forces" >
   <v>      -0.00258662       0.00072410      -0.00253286 </v>
   <v>      -0.00166677      -0.00058345       0.00337960 </v>
   <v>       0.00220701      -0.00041304      -0.00243458 </v>
   <v>      -0.00047760       0.00265048       0.00432459 </v>
   <v>      -0.00220510       0.00192716      -0.00148347 </v>
   <v>      -0.00183987       0.00386528      -0.00037053 </v>
   <v>      -0.00029638       0.00054602       0.00091371 </v>
   <v>       0.00002022      -0.00166823       0.00013370 </v>
   <v>       0.00083831      -0.00338316       0.00148244 </v>
   <v>      -0.00256250      -0.00018189      -0.00404464 </v>
   <v>       0.00235069      -0.00035370      -0.00203243 </v>
   <v>       0.00056981       0.00096358       0.00203849 </v>
   <v>      -0.00526136      -0.00402621      -0.00025911 </v>
   <v>      -0.00116089       0.00395339       0.00824241 </v>
   <v>      -0.00032058       0.00285470      -0.00041700 </v>
   <v>       0.00303594       0.00445211       0.00104606 </v>
   <v>      -0.00047757       0.00325211      -0.00044009 </v>
   <v>      -0.00322892      -0.00184348       0.00282861 </v>
   <v>      -0.00170819      -0.00224124       0.00063845 </v>
   <v>      -0.00026124      -0.00072547       0.00085019 </v>
   <v>       0.00004346      -0.00077343       0.00548398 </v>
   <v>      -0.00403533      -0.00376113       0.00134133 </v>
   <v>       0.00162589       0.00137523      -0.00303792 </v>
   <v>      -0.00559938       0.00118325       0.00480297 </v>
   <v>      -0.00142704       0.00110121       0.00004151 </v>
   <v>      -0.00033709      -0.00047635       0.00163469 </v>
   <v>      -0.00062605       0.00038084      -0.00052319 </v>
   <v>       0.00077528      -0.00268450      -0.00267872 </v>
   <v>      -0.00035744       0.00005288       0.00292673 </v>
   <v>       0.00164642      -0.00079943      -0.00005652 </v>
   <v>      -0.00338614      -0.00216933      -0.00047444 </v>
   <v>      -0.00084447       0.00086280      -0.00114496 </v>
   <v>      -0.00247090      -0.00321253       0.00056893 </v>
   <v>       0.00458542       0.00002390      -0.00109834 </v>
   <v>      -0.00037049       0.00113563      -0.00038798 </v>
   <v>       0.00146069      -0.00065854      -0.00035359 </v>
   <v>       0.00081116       0.00288489      -0.00061866 </v>
   <v>       0.00162482      -0.00026247       0.00389153 </v>
   <v>      -0.00128746       0.00124629      -0.00004720 </v>
   <v>       0.00004547      -0.00050590       0.00242485 </v>
   <v>       0.00382752       0.00385052       0.00235062 </v>
   <v>       0.00089379       0.00000490       0.00147571 </v>
   <v>       0.00139884       0.00128451       0.00098361 </v>
   <v>       0.00080886      -0.00523481      -0.00438697 </v>
   <v>       0.00112991       0.00033649      -0.00057012 </v>
   <v>      -0.00018682       0.00026290       0.00268022 </v>
   <v>      -0.00060372       0.00172838      -0.00137761 </v>
   <v>      -0.00170591      -0.00221007       0.00116342 </v>
   <v>       0.00294006      -0.00097519       0.00008917 </v>
   <v>      -0.00014432      -0.00114939       0.00076321 </v>
   <v>       0.00396918       0.00119217       0.00113385 </v>
   <v>       0.00255911      -0.00101427      -0.00069708 </v>
   <v>       0.00010052       0.00176961      -0.00086709 </v>
   <v>      -0.00062666      -0.00058975      -0.00089991 </v>
   <v>      -0.00428184       0.00269347      -0.00161182 </v>
   <v>       0.00002302      -0.00202779       0.00044983 </v>
   <v>       0.00114700      -0.00359324       0.00175524 </v>
   <v>      -0.00042218       0.00458601      -0.00121643 </v>
   <v>      -0.00383891      -0.00022237      -0.00225117 </v>
   <v>       0.00338878       0.00108881       0.00077600 </v>
   <v>      -0.00180754      -0.00247240       0.00624160 </v>
   <v>       0.00006293       0.00138802      -0.00198867 </v>
   <v>      -0.00613073      -0.00106985      -0.00440611 </v>
   <v>      -0.00234977      -0.00052413      -0.00069683 </v>
   <v>      -0.00274961      -0.00112611       0.00022684 </v>
   <v>      -0.00227760       0.00091064       0.00162587 </v>
   <v>      -0.00008044      -0.00146397       0.00071995 </v>
   <v>       0.00140638      -0.00101094      -0.00163771 </v>
   <v>      -0.00059089      -0.00305072       0.00071609 </v>
   <v>      -0.00259226      -0.00172397      -0.00165343 </v>
   <v>       0.00237597       0.00168654       0.00063059 </v>
   <v>       0.00387890      -0.00124512       0.00053639 </v>
   <v>       0.00019455      -0.00011567       0.00000735 </v>
   <v>       0.00096408      -0.00024153      -0.00070084 </v>
   <v>      -0.00085666      -0.00081068       0.00097157 </v>
   <v>      -0.00095353       0.00022814       0.00174823 </v>
   <v>      -0.00096872       0.00192202      -0.00352624 </v>
   <v>       0.00199054      -0.00078592      -0.00145222 </v>
   <v>       0.00131903       0.00542899      -0.00184440 </v>
   <v>       0.00054825      -0.00191369       0.00041394 </v>
   <v>       0.00186999      -0.00015953       0.00039020 </v>
   <v>      -0.00126763      -0.00099737       0.00133157 </v>
   <v>      -0.00013868       0.00048900      -0.00010027 </v>
   <v>       0.00049871      -0.00200487      -0.00225545 </v>
   <v>      -0.00105613      -0.00242686       0.00245733 </v>
   <v>      -0.00204128      -0.00129504       0.00241597 </v>
   <v>       0.00067732       0.00167455      -0.00074844 </v>
   <v>      -0.00113771       0.00315627      -0.00040174 </v>
   <v>      -0.00000144       0.00326694       0.00330497 </v>
   <v>      -0.00009738      -0.00140642       0.00079157 </v>
   <v>       0.00017464       0.00059497       0.00212706 </v>
   <v>       0.00111760      -0.00235192      -0.00033933 </v>
   <v>      -0.00230447       0.00157188      -0.00261768 </v>
   <v>      -0.00225054       0.00140402       0.00064346 </v>
   <v>       0.00028188       0.00171594       0.00071444 </v>
   <v>       0.00063291       0.00145805      -0.00351430 </v>
   <v>      -0.00142835       0.00058348       0.00188129 </v>
   <v>      -0.00022079       0.00285831      -0.00260931 </v>
   <v>       0.00064672       0.00326273       0.00185947 </v>
   <v>       0.00325671       0.00034962       0.00022620 </v>
   <v>       0.00345977      -0.00358248      -0.00014491 </v>
   <v>      -0.00012346      -0.00204021      -0.00073482 </v>
   <v>      -0.00408394      -0.00118643       0.00185261 </v>
   <v>       0.00215014       0.00195792      -0.00085349 </v>
   <v>       0.00244939      -0.00152665      -0.00148514 </v>
   <v>       0.00253094       0.00101735       0.00159133 </v>
   <v>       0.00277004       0.00063821      -0.00040869 </v>
   <v>       0.00044130      -0.00006983      -0.00128594 </v>
   <v>       0.00001652       0.00173909       0.00078016 </v>
   <v>       0.00089157      -0.00023984      -0.00009715 </v>
   <v>      -0.00120538       0.00105722       0.00046757 </v>
   <v>      -0.00055678      -0.00352982      -0.00467823 </v>
   <v>       0.00405757      -0.00058272       0.00495118 </v>
   <v>      -0.00179432      -0.00197748      -0.00246434 </v>
   <v>      -0.00050823      -0.00141221       0.00223993 </v>
   <v>       0.00463673      -0.00141804      -0.00115840 </v>
   <v>      -0.00072309      -0.00226489      -0.00109357 </v>
   <v>      -0.00040122       0.00083365      -0.00495495 </v>
   <v>       0.00390995      -0.00255790      -0.00014144 </v>
   <v>       0.00149681       0.00065290       0.00223894 </v>
   <v>       0.00324700      -0.00551198      -0.00265073 </v>
   <v>      -0.00376293       0.00271655       0.00091511 </v>
   <v>       0.00185422      -0.00237874      -0.00070160 </v>
   <v>       0.00522133       0.00066461       0.00529122 </v>
   <v>      -0.00038922       0.00114477       0.00094592 </v>
   <v>       0.00385294      -0.00183515      -0.00013167 </v>
   <v>      -0.00173428       0.00097026      -0.00021435 </v>
   <v>       0.00155633      -0.00211625       0.00084105 </v>
   <v>       0.00230287       0.00397712      -0.00103525 </v>
   <v>       0.00117089      -0.00113379       0.00013026 </v>
   <v>      -0.00238245       0.00000113       0.00038312 </v>
   <v>       0.00151054       0.00237458       0.00200589 </v>
   <v>       0.00446650       0.00669103       0.00149423 </v>
   <v>      -0.00478042      -0.00206763       0.00055505 </v>
   <v>      -0.00100278      -0.00028855      -0.00208822 </v>
   <v>       0.00024614      -0.00238565      -0.00086911 </v>
   <v>      -0.00052648       0.00095443       0.00249584 </v>
   <v>      -0.00180339       0.00361290       0.00205547 </v>
   <v>       0.00324138      -0.00283032       0.00275703 </v>
   <v>      -0.00334023      -0.00203284       0.00301283 </v>
[...]
       <r>   -13.5691     0.0000   184.0000 </r>
       <r>   -13.4782     0.0000   184.0000 </r>
       <r>   -13.3873     0.0000   184.0000 </r>
       <r>   -13.2965     0.0000   184.0000 </r>
       <r>   -13.2056     0.0000   184.0000 </r>
       <r>   -13.1148     0.0000   184.0000 </r>
       <r>   -13.0239     0.0000   184.0000 </r>
       <r>   -12.9331    41.2909   187.7515 </r>
       <r>   -12.8422    24.5165   190.3653 </r>
       <r>   -12.7514    54.8863   196.0612 </r>
       <r>   -12.6605    87.0782   205.9157 </r>
       <r>   -12.5696    56.0307   213.0907 </r>
       <r>   -12.4788    63.9524   221.8104 </r>
       <r>   -12.3879    32.8599   225.0587 </r>
       <r>   -12.2971    19.9754   227.2539 </r>
       <r>   -12.2062     6.5662   228.0000 </r>
       <r>   -12.1154     0.0000   228.0000 </r>
       <r>   -12.0245     0.0000   228.0000 </r>
       <r>   -11.9337     0.0001   228.0000 </r>
       <r>   -11.8428    52.8949   232.8058 </r>
       <r>   -11.7519    52.4983   237.8141 </r>
       <r>   -11.6611    21.9742   240.0000 </r>
       <r>   -11.5702    15.9516   241.4493 </r>
       <r>   -11.4794    67.0101   248.0913 </r>
       <r>   -11.3885    43.0091   252.0000 </r>
       <r>   -11.2977     0.0000   252.0000 </r>
       <r>   -11.2068    86.1245   259.8249 </r>
       <r>   -11.1160     0.0000   260.0000 </r>
       <r>   -11.0251    44.0224   263.9997 </r>
       <r>   -10.9342    88.2024   272.0180 </r>
       <r>   -10.8434    65.2640   277.9476 </r>
       <r>   -10.7525    30.8966   280.8071 </r>
       <r>   -10.6617   131.5850   295.9565 </r>
       <r>   -10.5708     1.9329   296.1756 </r>
       <r>   -10.4800     6.7516   296.9481 </r>
       <r>   -10.3891    10.5795   298.0000 </r>
       <r>   -10.2982    12.8193   299.1647 </r>
       <r>   -10.2074     6.6275   299.8375 </r>
       <r>   -10.1165    46.8577   304.2583 </r>
       <r>   -10.0257    91.6559   313.9734 </r>
       <r>    -9.9348    49.2132   318.4878 </r>
       <r>    -9.8440     9.9654   320.0000 </r>
       <r>    -9.7531     0.0000   320.0000 </r>
       <r>    -9.6623     0.0000   320.0000 </r>
       <r>    -9.5714    36.7754   323.3413 </r>
       <r>    -9.4805    22.0927   326.0073 </r>
       <r>    -9.3897    47.6022   330.3322 </r>
       <r>    -9.2988    30.7486   334.7937 </r>
       <r>    -9.2080    93.5155   346.5088 </r>
       <r>    -9.1171    84.6294   355.6891 </r>
       <r>    -9.0263   130.2062   367.8379 </r>
       <r>    -8.9354     0.0000   368.0000 </r>
       <r>    -8.8446     0.9539   368.0867 </r>
       <r>    -8.7537    55.5539   373.9980 </r>
       <r>    -8.6628    41.7070   378.1366 </r>
       <r>    -8.5720     8.3150   380.7555 </r>
       <r>    -8.4811    53.6467   386.0000 </r>
       <r>    -8.3903    21.9806   387.9971 </r>
       <r>    -8.2994     0.0000   388.0000 </r>
       <r>    -8.2086     0.0000   388.0000 </r>
       <r>    -8.1177     1.5344   388.1394 </r>
       <r>    -8.0269   162.0233   403.9796 </r>
       <r>    -7.9360    58.3248   409.2991 </r>
       <r>    -7.8451    66.0387   416.0000 </r>
       <r>    -7.7543     0.0000   416.0000 </r>
       <r>    -7.6634    43.6900   419.9695 </r>
       <r>    -7.5726    65.6347   428.0000 </r>
       <r>    -7.4817     0.0000   428.0000 </r>
       <r>    -7.3909     0.0000   428.0000 </r>
       <r>    -7.3000     0.0000   428.0000 </r>
       <r>    -7.2092     0.0000   428.0000 </r>
       <r>    -7.1183     0.0000   428.0000 </r>
       <r>    -7.0274     0.0000   428.0000 </r>
       <r>    -6.9366     0.0000   428.0000 </r>
       <r>    -6.8457    59.9184   433.4439 </r>
       <r>    -6.7549    22.0415   436.0041 </r>
       <r>    -6.6640    43.7777   440.0000 </r>
       <r>    -6.5732     0.0000   440.0000 </r>
       <r>    -6.4823     0.0000   440.0000 </r>
       <r>    -6.3915     0.0000   440.0000 </r>
       <r>    -6.3006     3.3619   440.3054 </r>
       <r>    -6.2097    59.3273   447.4385 </r>
       <r>    -6.1189    18.6017   449.6920 </r>
       <r>    -6.0280    68.2395   456.2000 </r>
       <r>    -5.9372    91.5127   465.9707 </r>
       <r>    -5.8463    13.9814   468.0000 </r>
       <r>    -5.7555    13.3118   469.2095 </r>
       <r>    -5.6646    52.6728   474.5935 </r>
       <r>    -5.5737    43.6891   479.4098 </r>
       <r>    -5.4829    54.2745   484.9312 </r>
       <r>    -5.3920    24.8001   488.2532 </r>
       <r>    -5.3012    24.6154   492.0000 </r>
       <r>    -5.2103     0.0000   492.0000 </r>
       <r>    -5.1195     0.0000   492.0000 </r>
       <r>    -5.0286     0.3046   492.0277 </r>
       <r>    -4.9378   131.7728   504.0000 </r>
       <r>    -4.8469     0.0000   504.0000 </r>
       <r>    -4.7560     0.0000   504.0000 </r>
       <r>    -4.6652     0.0000   504.0000 </r>
       <r>    -4.5743     0.0000   504.0000 </r>
       <r>    -4.4835     0.0000   504.0000 </r>
       <r>    -4.3926     0.0000   504.0000 </r>
       <r>    -4.3018     5.9068   504.5367 </r>
       <r>    -4.2109    87.7012   516.0000 </r>
       <r>    -4.1201     0.0000   516.0000 </r>
       <r>    -4.0292     0.0000   516.0000 </r>
       <r>    -3.9383     0.0000   516.0000 </r>
       <r>    -3.8475     0.0000   516.0000 </r>
       <r>    -3.7566     0.0000   516.0000 </r>
       <r>    -3.6658     0.0000   516.0000 </r>
       <r>    -3.5749     0.0000   516.0000 </r>
       <r>    -3.4841     0.0000   516.0000 </r>
       <r>    -3.3932     0.0000   516.0000 </r>
       <r>    -3.3024     0.0000   516.0000 </r>
       <r>    -3.2115     0.0000   516.0000 </r>
       <r>    -3.1206     0.0000   516.0000 </r>
       <r>    -3.0298     0.0000   516.0000 </r>
       <r>    -2.9389     0.0000   516.0000 </r>
       <r>    -2.8481     0.0000   516.0000 </r>
       <r>    -2.7572     0.0000   516.0000 </r>
       <r>    -2.6664     0.0000   516.0000 </r>
       <r>    -2.5755     0.0000   516.0000 </r>
       <r>    -2.4847     0.0000   516.0000 </r>
       <r>    -2.3938     0.0000   516.0000 </r>
       <r>    -2.3029     0.0000   516.0000 </r>
       <r>    -2.2121     0.0000   516.0000 </r>
       <r>    -2.1212     0.0000   516.0000 </r>
       <r>    -2.0304     0.0000   516.0000 </r>
       <r>    -1.9395     1.4552   516.1322 </r>
       <r>    -1.8487    29.3603   520.0028 </r>
       <r>    -1.7578    47.1702   526.2857 </r>
       <r>    -1.6670     0.0000   528.0000 </r>
       <r>    -1.5761     0.0000   528.0000 </r>
       <r>    -1.4852     0.0000   528.0000 </r>
       <r>    -1.3944     0.0000   528.0000 </r>
       <r>    -1.3035     0.2798   528.0254 </r>
       <r>    -1.2127    82.6221   535.5321 </r>
       <r>    -1.1218    38.1008   539.2538 </r>
       <r>    -1.0310    44.0256   544.0000 </r>
       <r>    -0.9401    11.8205   545.0740 </r>
       <r>    -0.8492    30.8097   548.2026 </r>
       <r>    -0.7584    17.2071   550.0004 </r>
       <r>    -0.6675    38.6825   553.5149 </r>
       <r>    -0.5767    36.0694   556.9158 </r>
       <r>    -0.4858    49.4789   562.0031 </r>
       <r>    -0.3950    68.2433   568.2034 </r>
       <r>    -0.3041     0.3766   570.0342 </r>
       <r>    -0.2133    50.5536   574.6273 </r>
       <r>    -0.1224    57.3352   580.4378 </r>
       <r>    -0.0315    53.8580   586.8933 </r>
       <r>     0.0593   100.5130   597.1496 </r>
       <r>     0.1502    70.7015   604.4392 </r>
       <r>     0.2410    31.0210   608.3329 </r>
       <r>     0.3319    43.8538   612.7217 </r>
       <r>     0.4227    69.3363   619.5758 </r>
       <r>     0.5136    65.4839   625.9654 </r>
       <r>     0.6044    76.2389   634.0381 </r>
       <r>     0.6953    82.0805   642.0313 </r>
       <r>     0.7862   106.1296   652.2857 </r>
       <r>     0.8770   109.8189   662.6069 </r>
       <r>     0.9679   132.5465   675.8036 </r>
       <r>     1.0587   122.8113   688.6855 </r>
       <r>     1.1496   129.6718   701.7606 </r>
       <r>     1.2404    12.7104   704.0000 </r>
       <r>     1.3313     0.0000   704.0000 </r>
       <r>     1.4221     0.0000   704.0000 </r>
       <r>     1.5130     0.0000   704.0000 </r>
       <r>     1.6039     0.0000   704.0000 </r>
       <r>     1.6947     0.0000   704.0000 </r>
       <r>     1.7856     0.0000   704.0000 </r>
       <r>     1.8764     0.0000   704.0000 </r>
       <r>     1.9673     0.0000   704.0000 </r>
       <r>     2.0581     0.0000   704.0000 </r>
       <r>     2.1490     0.0000   704.0000 </r>
       <r>     2.2398     0.0000   704.0000 </r>
       <r>     2.3307     0.0000   704.0000 </r>
       <r>     2.4216     0.0000   704.0000 </r>
      </set>
     </set>
    </array>
   </total>
  </dos>
 </calculation>
 <structure name="finalpos" >
  <crystal>
   <varray name="basis" >
    <v>      34.22130522      -0.01151481       0.00000000 </v>
    <v>     -17.11023781      29.64361121       0.00000000 </v>
    <v>       0.00000000       0.00000000      20.00000000 </v>
   </varray>
   <i name="volume">  20284.92091520 </i>
   <varray name="rec_basis" >
    <v>       0.02922724       0.01686991       0.00000000 </v>
    <v>       0.00001135       0.03374063       0.00000000 </v>
    <v>       0.00000000       0.00000000       0.05000000 </v>
   </varray>
  </crystal>
  <varray name="positions" >
   <v>       0.91141468       0.09010089       0.43191565 </v>
   <v>       0.88925919       0.14239188       0.36174721 </v>
   <v>       0.90588931       0.83527342       0.43236341 </v>
   <v>       0.85476056       0.76098657       0.36145303 </v>
   <v>       0.15955196       0.08371089       0.43239852 </v>
   <v>       0.23386898       0.10668650       0.36188940 </v>
   <v>       0.84365509       0.47522647       0.43284053 </v>
   <v>       0.84247746       0.41066099       0.35862462 </v>
   <v>       0.52037206       0.38213677       0.43209210 </v>
   <v>       0.58533819       0.44584753       0.35808017 </v>
   <v>       0.61366121       0.15423393       0.43159033 </v>
   <v>       0.54931960       0.15415752       0.35814545 </v>
   <v>       0.86269818       0.13880526       0.54029813 </v>
   <v>       0.91522157       0.11725457       0.61039692 </v>
   <v>       0.85560165       0.73784874       0.54055686 </v>
   <v>       0.87453498       0.81181297       0.60964244 </v>
   <v>       0.25690572       0.13156572       0.54084316 </v>
   <v>       0.18255356       0.07794127       0.61045383 </v>
   <v>       0.84623384       0.38976324       0.53769639 </v>
   <v>       0.84601622       0.45400397       0.61198173 </v>
   <v>       0.60601326       0.46983329       0.53728968 </v>
   <v>       0.54210900       0.40545277       0.61129669 </v>
   <v>       0.52574355       0.15089236       0.53755995 </v>
   <v>       0.58987607       0.15027007       0.61094883 </v>
   <v>       0.02893418       0.95622662       0.49106713 </v>
   <v>       0.03849045       0.08661755       0.49033016 </v>
   <v>       0.90807282       0.96574353       0.49134753 </v>
   <v>       0.73948293       0.13952813       0.49155161 </v>
   <v>       0.86340860       0.26688319       0.47476889 </v>
   <v>       0.73620522       0.26363615       0.48676898 </v>
   <v>       0.85633531       0.61436585       0.49201094 </v>
   <v>       0.72860643       0.61005321       0.47448180 </v>
   <v>       0.73261416       0.48655553       0.48795812 </v>
   <v>       0.38041147       0.25576612       0.49140385 </v>
   <v>       0.38469057       0.13227356       0.47542873 </v>
   <v>       0.50822817       0.25984616       0.48799115 </v>
   <v>       0.84205726       0.18370476       0.37513632 </v>
   <v>       0.93630857       0.05329360       0.38436552 </v>
   <v>       0.89975418       0.11902152       0.36332711 </v>
   <v>       0.87885721       0.14950934       0.31841346 </v>
   <v>       0.81320018       0.67232818       0.37481856 </v>
   <v>       0.94364914       0.89702126       0.38529689 </v>
   <v>       0.87814326       0.79484518       0.36344783 </v>
   <v>       0.84830724       0.74354242       0.31814310 </v>
   <v>       0.32243823       0.15418613       0.37520660 </v>
   <v>       0.09794196       0.05932501       0.38472807 </v>
   <v>       0.19995942       0.09603775       0.36376144 </v>
   <v>       0.25137296       0.11755623       0.31859484 </v>
   <v>       0.81626836       0.32421066       0.37140619 </v>
   <v>       0.83205157       0.52253678       0.38634769 </v>
   <v>       0.83066425       0.39199546       0.31643468 </v>
   <v>       0.84392455       0.44136132       0.36335039 </v>
   <v>       0.67184957       0.50601860       0.37133696 </v>
   <v>       0.47265606       0.32335493       0.38569907 </v>
   <v>       0.60413269       0.45251487       0.31605471 </v>
   <v>       0.55463054       0.41657263       0.36262716 </v>
   <v>       0.48843502       0.17952259       0.37172162 </v>
   <v>       0.67258176       0.16603982       0.38483828 </v>
   <v>       0.54193166       0.16554942       0.31600661 </v>
   <v>       0.57889499       0.15328299       0.36248869 </v>
   <v>       0.95509399       0.06860546       0.59767043 </v>
   <v>       0.82627145       0.16395468       0.58827584 </v>
   <v>       0.92241992       0.10695979       0.65378019 </v>
   <v>       0.89181114       0.12770067       0.60881363 </v>
   <v>       0.92383938       0.90034587       0.59744642 </v>
   <v>       0.83000028       0.67622797       0.58860344 </v>
   <v>       0.88426526       0.82928012       0.65310666 </v>
   <v>       0.86466005       0.77808542       0.60857324 </v>
   <v>       0.09412862       0.03852839       0.59758212 </v>
   <v>       0.31854477       0.16775346       0.58885433 </v>
   <v>       0.16498929       0.07061351       0.65378621 </v>
   <v>       0.21638093       0.10148519       0.60924024 </v>
   <v>       0.81648874       0.51186008       0.60045763 </v>
   <v>       0.83757621       0.33194729       0.58440685 </v>
   <v>       0.84805900       0.42507630       0.60730393 </v>
   <v>       0.83512731       0.46107782       0.65491593 </v>
   <v>       0.48343942       0.31832846       0.59977724 </v>
   <v>       0.66373001       0.51885659       0.58442916 </v>
   <v>       0.57109208       0.43639014       0.60660118 </v>
   <v>       0.53482331       0.38743500       0.65420486 </v>
   <v>       0.67701787       0.17865683       0.59939039 </v>
   <v>       0.47666846       0.15933279       0.58499772 </v>
   <v>       0.55903323       0.14855006       0.60649041 </v>
   <v>       0.60780993       0.16053734       0.65398854 </v>
   <v>       0.97084024       0.02924980       0.49074037 </v>
   <v>       0.94482473       0.98203771       0.49103873 </v>
   <v>       0.96544665       0.95550567       0.49110344 </v>
   <v>       0.01265969       0.97669484       0.49084494 </v>
   <v>       0.03917940       0.02384576       0.49069867 </v>
   <v>       0.01800174       0.04987301       0.49041987 </v>
   <v>       0.80245003       0.27097261       0.48069836 </v>
   <v>       0.75532511       0.24594703       0.48588204 </v>
   <v>       0.73212660       0.19872720       0.48970336 </v>
   <v>       0.75689464       0.17628201       0.48873163 </v>
   <v>       0.80412753       0.20074418       0.48307907 </v>
   <v>       0.82669040       0.24802103       0.47898837 </v>
   <v>       0.72490819       0.54521583       0.48100504 </v>
   <v>       0.75012237       0.52335712       0.48678657 </v>
   <v>       0.79734731       0.54763500       0.49061202 </v>
   <v>       0.81957659       0.59483863       0.48915515 </v>
   <v>       0.79491288       0.61737004       0.48317055 </v>
   <v>       0.74764566       0.59240798       0.47897825 </v>
   <v>       0.44956541       0.19346047       0.48146149 </v>
   <v>       0.47141651       0.24054953       0.48682274 </v>
   <v>       0.44717487       0.26353078       0.49023977 </v>
   <v>       0.39995711       0.23855208       0.48885351 </v>
   <v>       0.37742176       0.19131790       0.48339980 </v>
   <v>       0.40236603       0.16898525       0.47957353 </v>
   <v>       0.93214380       0.06589227       0.43248536 </v>
   <v>       0.87939397       0.13170206       0.48325518 </v>
   <v>       0.87224852       0.14780211       0.42048386 </v>
   <v>       0.84779719       0.17087355       0.42196140 </v>
   <v>       0.83028200       0.17681311       0.48138699 </v>
   <v>       0.93007579       0.88021150       0.43311304 </v>
   <v>       0.86342888       0.76163671       0.48334399 </v>
   <v>       0.84839425       0.73845073       0.42034246 </v>
   <v>       0.82539082       0.69091605       0.42176941 </v>
   <v>       0.81866059       0.66746101       0.48141141 </v>
   <v>       0.11461362       0.06304308       0.43281404 </v>
   <v>       0.23311071       0.11536034       0.48368366 </v>
   <v>       0.25633117       0.12323426       0.42073829 </v>
   <v>       0.30386672       0.14790217       0.42214785 </v>
   <v>       0.32731811       0.16490544       0.48171903 </v>
   <v>       0.82362073       0.32093361       0.47789220 </v>
   <v>       0.84495753       0.41109043       0.48145034 </v>
   <v>       0.83825223       0.38896847       0.41763226 </v>
   <v>       0.82574733       0.34299261       0.41844481 </v>
   <v>       0.83297309       0.50771225       0.43429722 </v>
   <v>       0.67496059       0.51625556       0.47791794 </v>
   <v>       0.58474692       0.44741331       0.48090247 </v>
   <v>       0.60699574       0.46305166       0.41722986 </v>
   <v>       0.65299157       0.49650779       0.41830908 </v>
   <v>       0.48757319       0.33906467       0.43362954 </v>
   <v>       0.47865325       0.17263852       0.47838671 </v>
   <v>       0.54804435       0.15211739       0.48099042 </v>
   <v>       0.53207383       0.15839463       0.41737509 </v>
   <v>       0.49825327       0.17041820       0.41863593 </v>
   <v>       0.65675056       0.16459441       0.43292164 </v>
   <v>       0.94846053       0.05691370       0.49143693 </v>
   <v>       0.90424530       0.10683382       0.48889703 </v>
   <v>       0.92019776       0.09971209       0.55184374 </v>
   <v>       0.94260860       0.07462234       0.55072582 </v>
   <v>       0.83875233       0.15979432       0.54004205 </v>
   <v>       0.93779005       0.90548170       0.49181846 </v>
   <v>       0.88799301       0.81135300       0.48901426 </v>
   <v>       0.89361324       0.83439246       0.55159880 </v>
   <v>       0.91876158       0.88188857       0.55066683 </v>
   <v>       0.83476530       0.69291882       0.54027336 </v>
   <v>       0.08921130       0.04618210       0.49155516 </v>
   <v>       0.18338020       0.09033410       0.48929502 </v>
   <v>       0.16017766       0.07371465       0.55198101 </v>
   <v>       0.11267984       0.05138678       0.55074485 </v>
   <v>       0.30184881       0.15568825       0.54055078 </v>
   <v>       0.83673321       0.34692672       0.53656798 </v>
   <v>       0.84452861       0.45379592       0.48920461 </v>
   <v>       0.83917797       0.46992909       0.55325798 </v>
   <v>       0.82518436       0.50231471       0.55296229 </v>
   <v>       0.82062975       0.52078582       0.49352410 </v>
   <v>       0.64886276       0.50315865       0.53647184 </v>
   <v>       0.54193405       0.40433582       0.48848638 </v>
   <v>       0.52581216       0.38285575       0.55255826 </v>
   <v>       0.49302934       0.33659611       0.55229667 </v>
   <v>       0.47428535       0.31367104       0.49290364 </v>
   <v>       0.49218737       0.16006613       0.53692452 </v>
   <v>       0.59127514       0.15268403       0.48821257 </v>
   <v>       0.61262903       0.15728173       0.55218301 </v>
   <v>       0.65888273       0.17071402       0.55183885 </v>
   <v>       0.68197944       0.17581646       0.49230055 </v>
  </varray>
 </structure>
</modeling>
