<?xml version="1.0" encoding="ISO-8859-1"?>
<modeling>
 <generator>
  <i name="program" type="string">vasp </i>
  <i name="version" type="string">5.4.4.18Apr17-6-g9f103f2a35  </i>
  <i name="subversion" type="string">(build Jun 07 2020 16:50:00) complex            parallel </i>
  <i name="platform" type="string">LinuxIFC </i>
  <i name="date" type="string">2023 02 16 </i>
  <i name="time" type="string">17:44:43 </i>
 </generator>
 <incar>
  <i type="string" name="SYSTEM">Simulation for cell shape cell volume r</i>
  <i type="int" name="ISTART">     1</i>
  <i type="string" name="PREC">high</i>
  <i type="string" name="ALGO">48</i>
  <i type="int" name="ICHARG">    11</i>
  <i type="int" name="NELM">   200</i>
  <i type="int" name="IBRION">    -1</i>
  <i name="EDIFF">      0.00001000</i>
  <i name="EDIFFG">     -0.01000000</i>
  <i type="int" name="NSW">     0</i>
  <i type="int" name="ISIF">     2</i>
  <i name="ENCUT">    500.00000000</i>
  <i name="POTIM">      0.30000000</i>
  <i type="string" name="LREAL">A</i>
  <i type="int" name="ISMEAR">     0</i>
  <i name="SIGMA">      0.01000000</i>
  <i type="int" name="NWRITE">     0</i>
  <i type="logical" name="LWAVE"> F  </i>
  <i type="logical" name="LCHARG"> F  </i>
  <v type="int" name="KPOINT_BSE">    -1     0     0     0</v>
  <i type="int" name="NELM">   200</i>
  <i type="string" name="GGA">PE</i>
 </incar>
 <structure name="primitive_cell" >
  <crystal>
   <varray name="basis" >
    <v>      34.50908571       0.01368178       0.00000000 </v>
    <v>     -17.23225011      29.90191891       0.00000000 </v>
    <v>       0.00000000       0.00000000      20.00000000 </v>
   </varray>
   <i name="volume">  20642.47300369 </i>
   <varray name="rec_basis" >
    <v>       0.02897126       0.01669592       0.00000000 </v>
    <v>      -0.00001326       0.03343503       0.00000000 </v>
    <v>       0.00000000       0.00000000       0.05000000 </v>
   </varray>
  </crystal>
  <varray name="positions" >
   <v>      -0.02356022       0.10445930      -0.36076499 </v>
   <v>      -0.04262485       0.06969259      -0.39458470 </v>
   <v>      -0.04903443       0.03256247      -0.37733573 </v>
   <v>      -0.06018475       0.07303250      -0.46055621 </v>
   <v>      -0.08488992       0.11330393      -0.41719741 </v>
   <v>      -0.08264744       0.09710467      -0.46263340 </v>
   <v>      -0.05501370       0.05179851       0.48305315 </v>
   <v>       0.03458246       0.08591672       0.49258843 </v>
   <v>      -0.03049706       0.02657441       0.48536779 </v>
   <v>       0.01611458       0.04945402       0.49110677 </v>
   <v>      -0.10162461       0.10061587       0.47740488 </v>
   <v>       0.05839036       0.04223335      -0.36691581 </v>
   <v>      -0.07320833       0.05664428       0.42300472 </v>
   <v>      -0.09600788       0.08047824       0.41996000 </v>
   <v>      -0.16726467       0.08958195      -0.43769100 </v>
   <v>      -0.05396425      -0.02019708       0.48334317 </v>
   <v>       0.03922162       0.02586264       0.49653987 </v>
   <v>      -0.12721516       0.12451974       0.47612774 </v>
   <v>      -0.09036055      -0.03814873       0.47999863 </v>
   <v>      -0.16028785       0.11506484      -0.47548036 </v>
   <v>       0.09336050       0.04166375      -0.37801438 </v>
   <v>      -0.04763478      -0.06579058      -0.37332465 </v>
   <v>      -0.06918605       0.04119485       0.37792569 </v>
   <v>       0.08896631       0.05047432       0.49812261 </v>
   <v>      -0.03126979      -0.04406885       0.49023058 </v>
   <v>       0.01536089      -0.02088709       0.49685135 </v>
   <v>      -0.11048629       0.08282442       0.37267804 </v>
   <v>       0.11484892       0.05774281      -0.44413395 </v>
   <v>      -0.11906494       0.15711773       0.42757171 </v>
   <v>      -0.09331550       0.16507070       0.38982462 </v>
   <v>       0.11246952       0.02924545      -0.33797435 </v>
   <v>      -0.18465757       0.13725734      -0.47595474 </v>
   <v>      -0.04540218      -0.09949664      -0.38745139 </v>
   <v>       0.03319936      -0.03943178      -0.49824023 </v>
   <v>       0.11247807       0.06668262       0.43784526 </v>
   <v>       0.09330575       0.06104600       0.39193668 </v>
   <v>      -0.05647664      -0.09375579       0.48956777 </v>
   <v>       0.16142625       0.08042764      -0.44545611 </v>
   <v>      -0.21028823       0.12946749      -0.43807635 </v>
   <v>      -0.14270300       0.18012581       0.42816681 </v>
   <v>      -0.06244309      -0.12022010      -0.45377406 </v>
   <v>       0.17945701       0.08428374      -0.39895755 </v>
   <v>      -0.17600299       0.17043096       0.47623809 </v>
   <v>      -0.03086761      -0.11814241      -0.35020538 </v>
   <v>       0.15901509       0.08950388       0.43560690 </v>
   <v>       0.18433846       0.09721402       0.49419112 </v>
   <v>      -0.13584949       0.20552854       0.39030097 </v>
   <v>      -0.07452831      -0.11671989       0.42941284 </v>
   <v>      -0.06994756      -0.09715357       0.38425016 </v>
   <v>       0.23970447       0.16477700      -0.42360105 </v>
   <v>       0.17612518       0.10236705       0.38800079 </v>
   <v>      -0.08524565      -0.16673269      -0.45605720 </v>
   <v>      -0.20148822       0.19447909       0.47718888 </v>
   <v>      -0.14251821       0.26016173       0.47487688 </v>
   <v>       0.23376181       0.12257312       0.49263365 </v>
   <v>      -0.08793989      -0.18518565      -0.41045437 </v>
   <v>       0.25780906       0.15682506      -0.46083525 </v>
   <v>      -0.09764766      -0.16326399       0.42626581 </v>
   <v>      -0.17900947       0.24147568       0.47589756 </v>
   <v>      -0.26590521       0.13382281       0.47855304 </v>
   <v>      -0.10375856      -0.18912596       0.48375785 </v>
   <v>      -0.24842594       0.17026618       0.48005945 </v>
   <v>      -0.11184368      -0.17991902       0.37879499 </v>
   <v>       0.25774985       0.11324250       0.44470606 </v>
   <v>       0.30431911       0.18121874      -0.46258577 </v>
   <v>       0.23964470       0.08655681       0.40839824 </v>
   <v>      -0.16759369      -0.24485965      -0.42947994 </v>
   <v>      -0.20287816       0.26435613       0.47998368 </v>
   <v>       0.32248623       0.20775822      -0.42610999 </v>
   <v>      -0.27272310       0.19268693       0.48056704 </v>
   <v>      -0.12896657      -0.23853656       0.48192192 </v>
   <v>      -0.16087987      -0.26279683      -0.46856826 </v>
   <v>      -0.24973017       0.23948134       0.48187300 </v>
   <v>      -0.18216129       0.31372975       0.48327988 </v>
   <v>       0.30432205       0.13697564       0.44398801 </v>
   <v>      -0.33063363       0.15213097      -0.41658875 </v>
   <v>       0.32837359       0.17150061       0.49013376 </v>
   <v>      -0.14741124       0.32804092       0.38869241 </v>
   <v>      -0.21203011       0.31130995      -0.42083684 </v>
   <v>      -0.15660158       0.34193289       0.43078989 </v>
   <v>      -0.09654776      -0.24411601       0.39285371 </v>
   <v>      -0.32241966       0.17063082       0.47963197 </v>
   <v>      -0.19289618       0.33262905      -0.46262292 </v>
   <v>      -0.12136617      -0.26235920       0.43157520 </v>
   <v>      -0.34735589       0.15470007      -0.46127509 </v>
   <v>      -0.29583208       0.17468764       0.34340677 </v>
   <v>      -0.26862474       0.25710014       0.48319391 </v>
   <v>       0.32246502       0.12923757       0.40654172 </v>
   <v>       0.38187994       0.26155035       0.48951209 </v>
   <v>      -0.18435974      -0.30932165      -0.46932572 </v>
   <v>       0.37786197       0.19693732       0.48965023 </v>
   <v>      -0.20886289      -0.32760698      -0.43026336 </v>
   <v>      -0.14574293       0.38669055       0.42959453 </v>
   <v>      -0.18128807       0.37742798      -0.46313166 </v>
   <v>      -0.34559270       0.17299217       0.42337999 </v>
   <v>      -0.32285625       0.18711762       0.35784583 </v>
   <v>       0.40073199       0.24391571       0.49106162 </v>
   <v>      -0.14419616      -0.30893624       0.43164115 </v>
   <v>      -0.39157643       0.14531133      -0.45737075 </v>
   <v>      -0.12769190       0.40753193       0.38677821 </v>
   <v>      -0.17606100      -0.33319010       0.48122938 </v>
   <v>      -0.15927585       0.40475100       0.48151146 </v>
   <v>      -0.19207297       0.39070972      -0.42214308 </v>
   <v>       0.38433884       0.13774903       0.48894625 </v>
   <v>      -0.40940551       0.13428938      -0.40990881 </v>
   <v>       0.40222751       0.17424309       0.48862455 </v>
   <v>      -0.13770347      -0.32694173       0.39240036 </v>
   <v>      -0.33288369       0.20980480       0.32121840 </v>
   <v>      -0.38941125       0.16455461       0.42661647 </v>
   <v>       0.44741569       0.26799724       0.49049133 </v>
   <v>      -0.41272533       0.15213476       0.48737724 </v>
   <v>       0.46525895       0.32567061      -0.40663110 </v>
   <v>      -0.13688672       0.46972334      -0.42191966 </v>
   <v>      -0.26519569      -0.38931546       0.49595875 </v>
   <v>      -0.19993173      -0.38265372       0.48236314 </v>
   <v>      -0.15766839       0.44831456       0.47621348 </v>
   <v>       0.44896526       0.19794290       0.49139776 </v>
   <v>       0.47524391       0.31767219       0.48940229 </v>
   <v>      -0.40394453       0.17062572       0.38226820 </v>
   <v>       0.48450389       0.34245962      -0.45128775 </v>
   <v>       0.45272932       0.29138745       0.35303101 </v>
   <v>       0.47107167       0.24480984       0.49183138 </v>
   <v>      -0.14921006       0.47644893      -0.46821990 </v>
   <v>      -0.24654612      -0.40707802       0.49144376 </v>
   <v>      -0.13989423      -0.38666578       0.46769774 </v>
   <v>      -0.43492710       0.18790148      -0.41121371 </v>
   <v>      -0.17891111       0.43847453       0.37229746 </v>
   <v>      -0.17600868      -0.40550385       0.47515935 </v>
   <v>      -0.45464388       0.15373842       0.49352736 </v>
   <v>      -0.17167574       0.45913609       0.41684730 </v>
   <v>      -0.49921055       0.34083499       0.43319943 </v>
   <v>      -0.48049222       0.38653950      -0.44715632 </v>
   <v>       0.49216778       0.31815123       0.36760490 </v>
   <v>       0.47745991       0.17702145       0.49510395 </v>
   <v>      -0.47343470       0.40423339      -0.39953786 </v>
   <v>      -0.45936676       0.17658609      -0.45169860 </v>
   <v>      -0.49243667       0.26355396       0.49231564 </v>
   <v>       0.45604151       0.14090857       0.40168714 </v>
   <v>      -0.49422586       0.20811166      -0.41002501 </v>
   <v>      -0.48447516       0.12076268       0.40000286 </v>
   <v>      -0.26918074      -0.45377695       0.49452304 </v>
   <v>      -0.15862103      -0.48869693      -0.47023802 </v>
   <v>       0.47947800       0.15059528       0.44337662 </v>
   <v>      -0.48676911       0.13950545       0.44230486 </v>
   <v>      -0.49246786       0.18835635      -0.45128565 </v>
   <v>      -0.46377375       0.38457798       0.43657701 </v>
   <v>      -0.45272848       0.40772721       0.49749403 </v>
   <v>      -0.19823277      -0.45213785       0.47760700 </v>
   <v>      -0.18022286       0.49454033       0.41544660 </v>
   <v>      -0.15469750      -0.46921103      -0.42521376 </v>
   <v>      -0.33517589      -0.45966949       0.41174342 </v>
   <v>      -0.47511273       0.32793753       0.33115990 </v>
   <v>      -0.31834081      -0.48228363      -0.49786534 </v>
   <v>      -0.24451529      -0.47583867       0.48799799 </v>
   <v>      -0.17624092      -0.47980655       0.47233810 </v>
   <v>      -0.34796651      -0.48368283       0.45280767 </v>
   <v>      -0.44323797       0.39921539       0.39221936 </v>
   <v>      -0.21827829       0.47043811       0.31414794 </v>
   <v>      -0.18633620      -0.45799911       0.33896651 </v>
   <v>      -0.19638673      -0.49710704       0.35152119 </v>
   <v>      -0.31327052       0.48819651      -0.40544676 </v>
   <v>      -0.33571494       0.48697658      -0.44488536 </v>
   <v>      -0.40926204       0.44966955      -0.49668214 </v>
   <v>      -0.26200504       0.48769540       0.48962123 </v>
   <v>      -0.39274851       0.42880370      -0.40411952 </v>
   <v>      -0.41465911       0.48057950       0.41234501 </v>
   <v>      -0.39267820       0.48246715       0.45300477 </v>
   <v>      -0.38053344       0.45379242      -0.44389098 </v>
  </varray>
 </structure>
 <varray name="primitive_index" >
  <v type="int" >        1 </v>
  <v type="int" >      163 </v>
  <v type="int" >        9 </v>
  <v type="int" >      116 </v>
  <v type="int" >       48 </v>
  <v type="int" >      135 </v>
  <v type="int" >       69 </v>
  <v type="int" >       29 </v>
  <v type="int" >       67 </v>
  <v type="int" >      121 </v>
  <v type="int" >      111 </v>
  <v type="int" >       12 </v>
  <v type="int" >       82 </v>
  <v type="int" >       81 </v>
  <v type="int" >       46 </v>
  <v type="int" >       68 </v>
  <v type="int" >      120 </v>
  <v type="int" >      112 </v>
  <v type="int" >       13 </v>
  <v type="int" >      136 </v>
  <v type="int" >      168 </v>
  <v type="int" >       10 </v>
  <v type="int" >       34 </v>
  <v type="int" >      143 </v>
  <v type="int" >      115 </v>
  <v type="int" >      119 </v>
  <v type="int" >       33 </v>
  <v type="int" >      144 </v>
  <v type="int" >       84 </v>
  <v type="int" >       21 </v>
  <v type="int" >       11 </v>
  <v type="int" >      137 </v>
  <v type="int" >      164 </v>
  <v type="int" >       28 </v>
  <v type="int" >       90 </v>
  <v type="int" >       38 </v>
  <v type="int" >      117 </v>
  <v type="int" >      145 </v>
  <v type="int" >       47 </v>
  <v type="int" >       83 </v>
  <v type="int" >      118 </v>
  <v type="int" >       54 </v>
  <v type="int" >      113 </v>
  <v type="int" >        2 </v>
  <v type="int" >       89 </v>
  <v type="int" >      146 </v>
  <v type="int" >       20 </v>
  <v type="int" >       86 </v>
  <v type="int" >       36 </v>
  <v type="int" >       52 </v>
  <v type="int" >       37 </v>
  <v type="int" >      138 </v>
  <v type="int" >       74 </v>
  <v type="int" >       15 </v>
  <v type="int" >      147 </v>
  <v type="int" >       51 </v>
  <v type="int" >      148 </v>
  <v type="int" >       85 </v>
  <v type="int" >       75 </v>
  <v type="int" >       14 </v>
  <v type="int" >      139 </v>
  <v type="int" >       73 </v>
  <v type="int" >       35 </v>
  <v type="int" >       92 </v>
  <v type="int" >      149 </v>
  <v type="int" >       25 </v>
  <v type="int" >       49 </v>
  <v type="int" >       70 </v>
  <v type="int" >       53 </v>
  <v type="int" >       72 </v>
  <v type="int" >      140 </v>
  <v type="int" >      141 </v>
  <v type="int" >       71 </v>
  <v type="int" >      129 </v>
  <v type="int" >       91 </v>
  <v type="int" >       64 </v>
  <v type="int" >      150 </v>
  <v type="int" >       40 </v>
  <v type="int" >       57 </v>
  <v type="int" >       99 </v>
  <v type="int" >       23 </v>
  <v type="int" >      105 </v>
  <v type="int" >      153 </v>
  <v type="int" >       88 </v>
  <v type="int" >      160 </v>
  <v type="int" >        8 </v>
  <v type="int" >       16 </v>
  <v type="int" >       24 </v>
  <v type="int" >       19 </v>
  <v type="int" >      142 </v>
  <v type="int" >      127 </v>
  <v type="int" >       50 </v>
  <v type="int" >       98 </v>
  <v type="int" >      154 </v>
  <v type="int" >      106 </v>
  <v type="int" >      167 </v>
  <v type="int" >      126 </v>
  <v type="int" >       87 </v>
  <v type="int" >      159 </v>
  <v type="int" >       39 </v>
  <v type="int" >      114 </v>
  <v type="int" >       97 </v>
  <v type="int" >       58 </v>
  <v type="int" >       31 </v>
  <v type="int" >       63 </v>
  <v type="int" >      128 </v>
  <v type="int" >       22 </v>
  <v type="int" >        7 </v>
  <v type="int" >      107 </v>
  <v type="int" >       80 </v>
  <v type="int" >      108 </v>
  <v type="int" >       60 </v>
  <v type="int" >       55 </v>
  <v type="int" >       30 </v>
  <v type="int" >       79 </v>
  <v type="int" >       96 </v>
  <v type="int" >      124 </v>
  <v type="int" >      100 </v>
  <v type="int" >       45 </v>
  <v type="int" >      156 </v>
  <v type="int" >        6 </v>
  <v type="int" >      125 </v>
  <v type="int" >      151 </v>
  <v type="int" >      123 </v>
  <v type="int" >       17 </v>
  <v type="int" >       66 </v>
  <v type="int" >       41 </v>
  <v type="int" >       78 </v>
  <v type="int" >      133 </v>
  <v type="int" >       95 </v>
  <v type="int" >      101 </v>
  <v type="int" >      155 </v>
  <v type="int" >      166 </v>
  <v type="int" >      134 </v>
  <v type="int" >       59 </v>
  <v type="int" >      162 </v>
  <v type="int" >       32 </v>
  <v type="int" >       44 </v>
  <v type="int" >       65 </v>
  <v type="int" >       43 </v>
  <v type="int" >      122 </v>
  <v type="int" >      152 </v>
  <v type="int" >      110 </v>
  <v type="int" >      109 </v>
  <v type="int" >      161 </v>
  <v type="int" >      102 </v>
  <v type="int" >      130 </v>
  <v type="int" >       77 </v>
  <v type="int" >       94 </v>
  <v type="int" >       56 </v>
  <v type="int" >       27 </v>
  <v type="int" >        5 </v>
  <v type="int" >      132 </v>
  <v type="int" >       76 </v>
  <v type="int" >       93 </v>
  <v type="int" >      104 </v>
  <v type="int" >       42 </v>
  <v type="int" >        3 </v>
  <v type="int" >        4 </v>
  <v type="int" >      165 </v>
  <v type="int" >       61 </v>
  <v type="int" >      157 </v>
  <v type="int" >      131 </v>
  <v type="int" >       18 </v>
  <v type="int" >       62 </v>
  <v type="int" >       26 </v>
  <v type="int" >      103 </v>
  <v type="int" >      158 </v>
 </varray>
 <kpoints>
  <generation param="listgenerated">
   <i name="divisions" type="int">      20 </i>
   <v>       0.00000000       0.00000000       0.00000000 </v>
   <v>       0.50000000       0.00000000       0.00000000 </v>
   <v>       0.33333333       0.33333333       0.00000000 </v>
   <v>       0.00000000       0.00000000       0.00000000 </v>
  </generation>
  <varray name="kpointlist" >
   <v>       0.00000000       0.00000000       0.00000000 </v>
   <v>       0.02631579       0.00000000       0.00000000 </v>
   <v>       0.05263158       0.00000000       0.00000000 </v>
   <v>       0.07894737       0.00000000       0.00000000 </v>
   <v>       0.10526316       0.00000000       0.00000000 </v>
   <v>       0.13157895       0.00000000       0.00000000 </v>
   <v>       0.15789474       0.00000000       0.00000000 </v>
   <v>       0.18421053       0.00000000       0.00000000 </v>
   <v>       0.21052632       0.00000000       0.00000000 </v>
   <v>       0.23684211       0.00000000       0.00000000 </v>
   <v>       0.26315789       0.00000000       0.00000000 </v>
   <v>       0.28947368       0.00000000       0.00000000 </v>
   <v>       0.31578947       0.00000000       0.00000000 </v>
   <v>       0.34210526       0.00000000       0.00000000 </v>
   <v>       0.36842105       0.00000000       0.00000000 </v>
   <v>       0.39473684       0.00000000       0.00000000 </v>
   <v>       0.42105263       0.00000000       0.00000000 </v>
   <v>       0.44736842       0.00000000       0.00000000 </v>
   <v>       0.47368421       0.00000000       0.00000000 </v>
   <v>       0.50000000       0.00000000       0.00000000 </v>
   <v>       0.50000000       0.00000000       0.00000000 </v>
   <v>       0.49122807       0.01754386       0.00000000 </v>
   <v>       0.48245614       0.03508772       0.00000000 </v>
   <v>       0.47368421       0.05263158       0.00000000 </v>
   <v>       0.46491228       0.07017544       0.00000000 </v>
   <v>       0.45614035       0.08771930       0.00000000 </v>
   <v>       0.44736842       0.10526316       0.00000000 </v>
   <v>       0.43859649       0.12280702       0.00000000 </v>
   <v>       0.42982456       0.14035088       0.00000000 </v>
   <v>       0.42105263       0.15789474       0.00000000 </v>
   <v>       0.41228070       0.17543860       0.00000000 </v>
   <v>       0.40350877       0.19298246       0.00000000 </v>
   <v>       0.39473684       0.21052632       0.00000000 </v>
   <v>       0.38596491       0.22807018       0.00000000 </v>
   <v>       0.37719298       0.24561404       0.00000000 </v>
   <v>       0.36842105       0.26315789       0.00000000 </v>
   <v>       0.35964912       0.28070175       0.00000000 </v>
   <v>       0.35087719       0.29824561       0.00000000 </v>
   <v>       0.34210526       0.31578947       0.00000000 </v>
   <v>       0.33333333       0.33333333       0.00000000 </v>
   <v>       0.33333333       0.33333333       0.00000000 </v>
   <v>       0.31578947       0.31578947       0.00000000 </v>
   <v>       0.29824561       0.29824561       0.00000000 </v>
   <v>       0.28070175       0.28070175       0.00000000 </v>
   <v>       0.26315789       0.26315789       0.00000000 </v>
   <v>       0.24561404       0.24561404       0.00000000 </v>
   <v>       0.22807018       0.22807018       0.00000000 </v>
   <v>       0.21052632       0.21052632       0.00000000 </v>
   <v>       0.19298246       0.19298246       0.00000000 </v>
   <v>       0.17543860       0.17543860       0.00000000 </v>
   <v>       0.15789474       0.15789474       0.00000000 </v>
   <v>       0.14035088       0.14035088       0.00000000 </v>
   <v>       0.12280702       0.12280702       0.00000000 </v>
   <v>       0.10526316       0.10526316       0.00000000 </v>
   <v>       0.08771930       0.08771930       0.00000000 </v>
   <v>       0.07017544       0.07017544       0.00000000 </v>
   <v>       0.05263158       0.05263158       0.00000000 </v>
   <v>       0.03508772       0.03508772       0.00000000 </v>
   <v>       0.01754386       0.01754386       0.00000000 </v>
   <v>       0.00000000       0.00000000       0.00000000 </v>
  </varray>
  <varray name="weights" >
   <v>       0.01666667 </v>
   <v>       0.01666667 </v>
   <v>       0.01666667 </v>
   <v>       0.01666667 </v>
   <v>       0.01666667 </v>
   <v>       0.01666667 </v>
   <v>       0.01666667 </v>
   <v>       0.01666667 </v>
   <v>       0.01666667 </v>
   <v>       0.01666667 </v>
   <v>       0.01666667 </v>
   <v>       0.01666667 </v>
   <v>       0.01666667 </v>
   <v>       0.01666667 </v>
   <v>       0.01666667 </v>
   <v>       0.01666667 </v>
   <v>       0.01666667 </v>
   <v>       0.01666667 </v>
   <v>       0.01666667 </v>
   <v>       0.01666667 </v>
   <v>       0.01666667 </v>
   <v>       0.01666667 </v>
   <v>       0.01666667 </v>
   <v>       0.01666667 </v>
   <v>       0.01666667 </v>
   <v>       0.01666667 </v>
   <v>       0.01666667 </v>
   <v>       0.01666667 </v>
   <v>       0.01666667 </v>
   <v>       0.01666667 </v>
   <v>       0.01666667 </v>
   <v>       0.01666667 </v>
   <v>       0.01666667 </v>
   <v>       0.01666667 </v>
   <v>       0.01666667 </v>
   <v>       0.01666667 </v>
   <v>       0.01666667 </v>
   <v>       0.01666667 </v>
   <v>       0.01666667 </v>
   <v>       0.01666667 </v>
   <v>       0.01666667 </v>
   <v>       0.01666667 </v>
   <v>       0.01666667 </v>
   <v>       0.01666667 </v>
   <v>       0.01666667 </v>
   <v>       0.01666667 </v>
   <v>       0.01666667 </v>
   <v>       0.01666667 </v>
   <v>       0.01666667 </v>
   <v>       0.01666667 </v>
   <v>       0.01666667 </v>
   <v>       0.01666667 </v>
   <v>       0.01666667 </v>
   <v>       0.01666667 </v>
   <v>       0.01666667 </v>
   <v>       0.01666667 </v>
   <v>       0.01666667 </v>
   <v>       0.01666667 </v>
   <v>       0.01666667 </v>
   <v>       0.01666667 </v>
  </varray>
 </kpoints>
 <parameters>
  <separator name="general" >
   <i type="string" name="SYSTEM">Simulation for cell shape cell volume r</i>
   <i type="logical" name="LCOMPAT"> F  </i>
  </separator>
  <separator name="electronic" >
   <i type="string" name="PREC">high</i>
   <i name="ENMAX">    500.00000000</i>
   <i name="ENAUG">    644.87300000</i>
   <i name="EDIFF">      0.00001000</i>
   <i type="int" name="IALGO">    38</i>
   <i type="int" name="IWAVPR">    10</i>
   <i type="int" name="NBANDS">   368</i>
   <i name="NELECT">    540.00000000</i>
   <i type="int" name="TURBO">     0</i>
   <i type="int" name="IRESTART">     0</i>
   <i type="int" name="NREBOOT">     0</i>
   <i type="int" name="NMIN">     0</i>
   <i name="EREF">      0.00000000</i>
   <separator name="electronic smearing" >
    <i type="int" name="ISMEAR">     0</i>
    <i name="SIGMA">      0.01000000</i>
    <i name="KSPACING">      0.50000000</i>
    <i type="logical" name="KGAMMA"> T  </i>
   </separator>
   <separator name="electronic projectors" >
    <i type="logical" name="LREAL"> T  </i>
    <v name="ROPT">     -0.00040000     -0.00040000     -0.00040000     -0.00040000</v>
    <i type="int" name="LMAXPAW">  -100</i>
    <i type="int" name="LMAXMIX">     2</i>
    <i type="logical" name="NLSPLINE"> F  </i>
   </separator>
   <separator name="electronic startup" >
    <i type="int" name="ISTART">     1</i>
    <i type="int" name="ICHARG">    11</i>
    <i type="int" name="INIWAV">     1</i>
   </separator>
   <separator name="electronic spin" >
    <i type="int" name="ISPIN">     1</i>
    <i type="logical" name="LNONCOLLINEAR"> F  </i>
    <v name="MAGMOM">      1.00000000      1.00000000      1.00000000      1.00000000      1.00000000      1.00000000      1.00000000      1.00000000      1.00000000      1.00000000      1.00000000      1.00000000      1.00000000      1.00000000      1.00000000      1.00000000      1.00000000      1.00000000      1.00000000      1.00000000
      1.00000000      1.00000000      1.00000000      1.00000000      1.00000000      1.00000000      1.00000000      1.00000000      1.00000000      1.00000000      1.00000000      1.00000000      1.00000000      1.00000000      1.00000000      1.00000000      1.00000000      1.00000000      1.00000000      1.00000000
      1.00000000      1.00000000      1.00000000      1.00000000      1.00000000      1.00000000      1.00000000      1.00000000      1.00000000      1.00000000      1.00000000      1.00000000      1.00000000      1.00000000      1.00000000      1.00000000      1.00000000      1.00000000      1.00000000      1.00000000
      1.00000000      1.00000000      1.00000000      1.00000000      1.00000000      1.00000000      1.00000000      1.00000000      1.00000000      1.00000000      1.00000000      1.00000000      1.00000000      1.00000000      1.00000000      1.00000000      1.00000000      1.00000000      1.00000000      1.00000000
      1.00000000      1.00000000      1.00000000      1.00000000      1.00000000      1.00000000      1.00000000      1.00000000      1.00000000      1.00000000      1.00000000      1.00000000      1.00000000      1.00000000      1.00000000      1.00000000      1.00000000      1.00000000      1.00000000      1.00000000
      1.00000000      1.00000000      1.00000000      1.00000000      1.00000000      1.00000000      1.00000000      1.00000000      1.00000000      1.00000000      1.00000000      1.00000000      1.00000000      1.00000000      1.00000000      1.00000000      1.00000000      1.00000000      1.00000000      1.00000000
      1.00000000      1.00000000      1.00000000      1.00000000      1.00000000      1.00000000      1.00000000      1.00000000      1.00000000      1.00000000      1.00000000      1.00000000      1.00000000      1.00000000      1.00000000      1.00000000      1.00000000      1.00000000      1.00000000      1.00000000
      1.00000000      1.00000000      1.00000000      1.00000000      1.00000000      1.00000000      1.00000000      1.00000000      1.00000000      1.00000000      1.00000000      1.00000000      1.00000000      1.00000000      1.00000000      1.00000000      1.00000000      1.00000000      1.00000000      1.00000000
      1.00000000      1.00000000      1.00000000      1.00000000      1.00000000      1.00000000      1.00000000      1.00000000</v>
    <i name="NUPDOWN">     -1.00000000</i>
    <i type="logical" name="LSORBIT"> F  </i>
    <v name="SAXIS">      0.00000000      0.00000000      1.00000000</v>
    <i type="logical" name="LSPIRAL"> F  </i>
    <v name="QSPIRAL">      0.00000000      0.00000000      0.00000000</v>
    <i type="logical" name="LZEROZ"> F  </i>
   </separator>
   <separator name="electronic exchange-correlation" >
    <i type="logical" name="LASPH"> F  </i>
    <i type="logical" name="LMETAGGA"> F  </i>
   </separator>
   <separator name="electronic convergence" >
    <i type="int" name="NELM">   200</i>
    <i type="int" name="NELMDL">     0</i>
    <i type="int" name="NELMIN">     2</i>
    <i name="ENINI">    500.00000000</i>
    <separator name="electronic convergence detail" >
     <i type="logical" name="LDIAG"> T  </i>
     <i type="logical" name="LSUBROT"> F  </i>
     <i name="WEIMIN">      0.00000000</i>
     <i name="EBREAK">      0.00000001</i>
     <i name="DEPER">      0.30000000</i>
     <i type="int" name="NRMM">     4</i>
     <i name="TIME">      0.40000000</i>
    </separator>
   </separator>
   <separator name="electronic mixer" >
    <i name="AMIX">      0.40000000</i>
    <i name="BMIX">      1.00000000</i>
    <i name="AMIN">      0.10000000</i>
    <i name="AMIX_MAG">      1.60000000</i>
    <i name="BMIX_MAG">      1.00000000</i>
    <separator name="electronic mixer details" >
     <i type="int" name="IMIX">     4</i>
     <i type="logical" name="MIXFIRST"> F  </i>
     <i type="int" name="MAXMIX">   -45</i>
     <i name="WC">    100.00000000</i>
     <i type="int" name="INIMIX">     1</i>
     <i type="int" name="MIXPRE">     1</i>
     <i type="int" name="MREMOVE">     5</i>
    </separator>
   </separator>
   <separator name="electronic dipolcorrection" >
    <i type="logical" name="LDIPOL"> F  </i>
    <i type="logical" name="LMONO"> F  </i>
    <i type="int" name="IDIPOL">     0</i>
    <i name="EPSILON">      1.00000000</i>
    <v name="DIPOL">   -100.00000000   -100.00000000   -100.00000000</v>
    <i name="EFIELD">      0.00000000</i>
   </separator>
  </separator>
  <separator name="grids" >
   <i type="int" name="NGX">   252</i>
   <i type="int" name="NGY">   252</i>
   <i type="int" name="NGZ">   150</i>
   <i type="int" name="NGXF">   384</i>
   <i type="int" name="NGYF">   384</i>
   <i type="int" name="NGZF">   224</i>
   <i type="logical" name="ADDGRID"> F  </i>
  </separator>
  <separator name="ionic" >
   <i type="int" name="NSW">     0</i>
   <i type="int" name="IBRION">    -1</i>
   <i type="int" name="MDALGO">     0</i>
   <i type="int" name="ISIF">     2</i>
   <i name="PSTRESS">      0.00000000</i>
   <i name="EDIFFG">     -0.01000000</i>
   <i type="int" name="NFREE">     0</i>
   <i name="POTIM">      0.30000000</i>
   <i name="SMASS">     -3.00000000</i>
   <i name="SCALEE">      1.00000000</i>
  </separator>
  <separator name="ionic md" >
   <i name="TEBEG">      0.00010000</i>
   <i name="TEEND">      0.00010000</i>
   <i type="int" name="NBLOCK">     1</i>
   <i type="int" name="KBLOCK">     1</i>
   <i type="int" name="NPACO">   256</i>
   <i name="APACO">     16.00000000</i>
  </separator>
  <separator name="symmetry" >
   <i type="int" name="ISYM">     2</i>
   <i name="SYMPREC">      0.00001000</i>
  </separator>
  <separator name="dos" >
   <i type="int" name="LORBIT">     0</i>
   <v name="RWIGS">     -1.00000000     -1.00000000     -1.00000000     -1.00000000</v>
   <i type="int" name="NEDOS">   301</i>
   <i name="EMIN">     10.00000000</i>
   <i name="EMAX">    -10.00000000</i>
   <i name="EFERMI">      0.00000000</i>
  </separator>
  <separator name="writing" >
   <i type="int" name="NWRITE">     0</i>
   <i type="logical" name="LWAVE"> F  </i>
   <i type="logical" name="LDOWNSAMPLE"> F  </i>
   <i type="logical" name="LCHARG"> F  </i>
   <i type="logical" name="LPARD"> F  </i>
   <i type="logical" name="LVTOT"> F  </i>
   <i type="logical" name="LVHAR"> F  </i>
   <i type="logical" name="LELF"> F  </i>
   <i type="logical" name="LOPTICS"> F  </i>
   <v name="STM">      0.00000000      0.00000000      0.00000000      0.00000000      0.00000000      0.00000000      0.00000000</v>
  </separator>
  <separator name="performance" >
   <i type="int" name="NPAR">    16</i>
   <i type="int" name="NSIM">     4</i>
   <i type="int" name="NBLK">    -1</i>
   <i type="logical" name="LPLANE"> T  </i>
   <i type="logical" name="LSCALAPACK"> T  </i>
   <i type="logical" name="LSCAAWARE"> F  </i>
   <i type="logical" name="LSCALU"> F  </i>
   <i type="logical" name="LASYNC"> F  </i>
   <i type="logical" name="LORBITALREAL"> F  </i>
  </separator>
  <separator name="miscellaneous" >
   <i type="int" name="IDIOT">     3</i>
   <i type="int" name="ISPECIAL">     0</i>
   <i type="logical" name="LMUSIC"> F  </i>
   <v name="POMASS">     16.00000000      1.00000000     12.01100000     14.00100000</v>
   <v name="DARWINR">      0.00000000      0.00000000      0.00000000      0.00000000</v>
   <v name="DARWINV">      1.00000000      1.00000000      1.00000000      1.00000000</v>
   <i type="logical" name="LCORR"> T  </i>
  </separator>
  <i type="logical" name="GGA_COMPAT"> T  </i>
  <i type="logical" name="LBERRY"> F  </i>
  <i type="int" name="ICORELEVEL">     0</i>
  <i type="logical" name="LDAU"> F  </i>
  <i type="int" name="I_CONSTRAINED_M">     0</i>
  <separator name="electronic exchange-correlation" >
   <i type="string" name="GGA">PE</i>
   <i type="int" name="VOSKOWN">     0</i>
   <i type="logical" name="LHFCALC"> F  </i>
   <i type="string" name="PRECFOCK"></i>
   <i type="logical" name="LSYMGRAD"> F  </i>
   <i type="logical" name="LHFONE"> F  </i>
   <i type="logical" name="LRHFCALC"> F  </i>
   <i type="logical" name="LTHOMAS"> F  </i>
   <i type="logical" name="LMODELHF"> F  </i>
   <i name="ENCUT4O">     -1.00000000</i>
   <i type="int" name="EXXOEP">     0</i>
   <i type="int" name="FOURORBIT">     0</i>
   <i name="AEXX">      0.00000000</i>
   <i name="HFALPHA">      0.00000000</i>
   <i name="MCALPHA">      0.00000000</i>
   <i name="ALDAX">      1.00000000</i>
   <i name="AGGAX">      1.00000000</i>
   <i name="ALDAC">      1.00000000</i>
   <i name="AGGAC">      1.00000000</i>
   <i type="int" name="NKREDX">     1</i>
   <i type="int" name="NKREDY">     1</i>
   <i type="int" name="NKREDZ">     1</i>
   <i type="logical" name="SHIFTRED"> F  </i>
   <i type="logical" name="ODDONLY"> F  </i>
   <i type="logical" name="EVENONLY"> F  </i>
   <i type="int" name="LMAXFOCK">     0</i>
   <i type="int" name="NMAXFOCKAE">     0</i>
   <i type="logical" name="LFOCKAEDFT"> F  </i>
   <i name="HFSCREEN">      0.00000000</i>
   <i name="HFSCREENC">      0.00000000</i>
   <i type="int" name="NBANDSGWLOW">     0</i>
  </separator>
  <separator name="vdW DFT" >
   <i type="logical" name="LUSE_VDW"> F  </i>
   <i name="Zab_VDW">     -0.84910000</i>
   <i name="PARAM1">      0.12340000</i>
   <i name="PARAM2">      1.00000000</i>
   <i name="PARAM3">      0.00000000</i>
  </separator>
  <separator name="model GW" >
   <i type="int" name="MODEL_GW">     0</i>
   <i name="MODEL_EPS0">     73.72311787</i>
   <i name="MODEL_ALPHA">      1.00000000</i>
  </separator>
  <separator name="linear response parameters" >
   <i type="logical" name="LEPSILON"> F  </i>
   <i type="logical" name="LRPA"> F  </i>
   <i type="logical" name="LNABLA"> F  </i>
   <i type="logical" name="LVEL"> F  </i>
   <i type="int" name="KINTER">     0</i>
   <i name="CSHIFT">      0.10000000</i>
   <i name="OMEGAMAX">     -1.00000000</i>
   <i name="DEG_THRESHOLD">      0.00200000</i>
   <i name="RTIME">     -0.10000000</i>
   <i name="WPLASMAI">      0.00000000</i>
   <v name="DFIELD">      0.00000000      0.00000000      0.00000000</v>
   <v name="WPLASMA">      0.00000000      0.00000000      0.00000000      0.00000000      0.00000000      0.00000000      0.00000000      0.00000000      0.00000000</v>
  </separator>
  <separator name="orbital magnetization" >
   <i type="logical" name="NUCIND"> F  </i>
   <v name="MAGPOS">      0.00000000      0.00000000      0.00000000</v>
   <i type="logical" name="LNICSALL"> T  </i>
   <i type="logical" name="ORBITALMAG"> F  </i>
   <i type="logical" name="LMAGBLOCH"> F  </i>
   <i type="logical" name="LCHIMAG"> F  </i>
   <i type="logical" name="LGAUGE"> T  </i>
   <i type="int" name="MAGATOM">     0</i>
   <v name="MAGDIPOL">      0.00000000      0.00000000      0.00000000</v>
   <v name="AVECCONST">      0.00000000      0.00000000      0.00000000</v>
  </separator>
  <separator name="response functions" >
   <i type="logical" name="LADDER"> F  </i>
   <i type="logical" name="LRPAFORCE"> F  </i>
   <i type="logical" name="LFXC"> F  </i>
   <i type="logical" name="LHARTREE"> T  </i>
   <i type="int" name="IBSE">     0</i>
   <v type="int" name="KPOINT">    -1     0     0     0</v>
   <i type="logical" name="LTCTE"> F  </i>
   <i type="logical" name="LTETE"> F  </i>
   <i type="logical" name="LTRIPLET"> F  </i>
   <i type="logical" name="LFXCEPS"> F  </i>
   <i type="logical" name="LFXHEG"> F  </i>
   <i type="int" name="NATURALO">     2</i>
   <i type="logical" name="L2ORDER"> F  </i>
   <i type="logical" name="LMP2LT"> F  </i>
   <i type="logical" name="LUSEW"> F  </i>
   <i name="ENCUTGW">     -2.00000000</i>
   <i name="ENCUTGWSOFT">     -2.00000000</i>
   <i name="ENCUTLF">     -1.00000000</i>
   <i type="int" name="LMAXMP2">    -1</i>
   <i name="SCISSOR">      0.00000000</i>
   <i type="int" name="NOMEGA">     0</i>
   <i type="int" name="NOMEGAR">     0</i>
   <i type="int" name="NBANDSGW">    -1</i>
   <i type="int" name="NBANDSO">    -1</i>
   <i type="int" name="NBANDSV">    -1</i>
   <i type="int" name="NELM">   200</i>
   <i type="int" name="NELMHF">     1</i>
   <i type="int" name="DIM">     3</i>
   <i type="int" name="ANTIRES">     0</i>
   <i name="OMEGAMAX">    -30.00000000</i>
   <i name="OMEGAMIN">    -30.00000000</i>
   <i name="OMEGATL">   -200.00000000</i>
   <i type="int" name="OMEGAGRID">   140</i>
   <i name="CSHIFT">     -0.10000000</i>
   <i type="logical" name="SELFENERGY"> F  </i>
   <i type="logical" name="LSPECTRAL"> F  </i>
   <i type="logical" name="LSPECTRALGW"> F  </i>
   <i type="logical" name="LSINGLES"> F  </i>
   <i type="logical" name="LFERMIGW"> F  </i>
   <i type="logical" name="ODDONLYGW"> F  </i>
   <i type="logical" name="EVENONLYGW"> F  </i>
   <i type="int" name="NKREDLFX">     1</i>
   <i type="int" name="NKREDLFY">     1</i>
   <i type="int" name="NKREDLFZ">     1</i>
   <i type="int" name="MAXMEM">  2800</i>
   <i type="int" name="TELESCOPE">     0</i>
   <i type="int" name="TAUPAR">     1</i>
   <i type="int" name="OMEGAPAR">    -1</i>
   <i name="LAMBDA">      1.00000000</i>
  </separator>
  <separator name="External order field" >
   <i name="OFIELD_KAPPA">      0.00000000</i>
   <v name="OFIELD_K">      0.00000000      0.00000000      0.00000000</v>
   <i name="OFIELD_Q6_NEAR">      0.00000000</i>
   <i name="OFIELD_Q6_FAR">      0.00000000</i>
   <i name="OFIELD_A">      0.00000000</i>
  </separator>
  <separator name="solvation model" >
   <i type="logical" name="LSOL"> F  </i>
  </separator>
 </parameters>
 <atominfo>
  <atoms>     168 </atoms>
  <types>       4 </types>
  <array name="atoms" >
   <dimension dim="1">ion</dimension>
   <field type="string">element</field>
   <field type="int">atomtype</field>
   <set>
    <rc><c>O </c><c>   1</c></rc>
    <rc><c>O </c><c>   1</c></rc>
    <rc><c>O </c><c>   1</c></rc>
    <rc><c>O </c><c>   1</c></rc>
    <rc><c>O </c><c>   1</c></rc>
    <rc><c>O </c><c>   1</c></rc>
    <rc><c>O </c><c>   1</c></rc>
    <rc><c>O </c><c>   1</c></rc>
    <rc><c>O </c><c>   1</c></rc>
    <rc><c>O </c><c>   1</c></rc>
    <rc><c>O </c><c>   1</c></rc>
    <rc><c>O </c><c>   1</c></rc>
    <rc><c>H </c><c>   2</c></rc>
    <rc><c>H </c><c>   2</c></rc>
    <rc><c>H </c><c>   2</c></rc>
    <rc><c>H </c><c>   2</c></rc>
    <rc><c>H </c><c>   2</c></rc>
    <rc><c>H </c><c>   2</c></rc>
    <rc><c>H </c><c>   2</c></rc>
    <rc><c>H </c><c>   2</c></rc>
    <rc><c>H </c><c>   2</c></rc>
    <rc><c>H </c><c>   2</c></rc>
    <rc><c>H </c><c>   2</c></rc>
    <rc><c>H </c><c>   2</c></rc>
    <rc><c>H </c><c>   2</c></rc>
    <rc><c>H </c><c>   2</c></rc>
    <rc><c>H </c><c>   2</c></rc>
    <rc><c>H </c><c>   2</c></rc>
    <rc><c>H </c><c>   2</c></rc>
    <rc><c>H </c><c>   2</c></rc>
    <rc><c>H </c><c>   2</c></rc>
    <rc><c>H </c><c>   2</c></rc>
    <rc><c>H </c><c>   2</c></rc>
    <rc><c>H </c><c>   2</c></rc>
    <rc><c>H </c><c>   2</c></rc>
    <rc><c>H </c><c>   2</c></rc>
    <rc><c>H </c><c>   2</c></rc>
    <rc><c>H </c><c>   2</c></rc>
    <rc><c>H </c><c>   2</c></rc>
    <rc><c>H </c><c>   2</c></rc>
    <rc><c>H </c><c>   2</c></rc>
    <rc><c>H </c><c>   2</c></rc>
    <rc><c>H </c><c>   2</c></rc>
    <rc><c>H </c><c>   2</c></rc>
    <rc><c>H </c><c>   2</c></rc>
    <rc><c>H </c><c>   2</c></rc>
    <rc><c>H </c><c>   2</c></rc>
    <rc><c>H </c><c>   2</c></rc>
    <rc><c>H </c><c>   2</c></rc>
    <rc><c>H </c><c>   2</c></rc>
    <rc><c>H </c><c>   2</c></rc>
    <rc><c>H </c><c>   2</c></rc>
    <rc><c>H </c><c>   2</c></rc>
    <rc><c>H </c><c>   2</c></rc>
    <rc><c>H </c><c>   2</c></rc>
    <rc><c>H </c><c>   2</c></rc>
    <rc><c>H </c><c>   2</c></rc>
    <rc><c>H </c><c>   2</c></rc>
    <rc><c>H </c><c>   2</c></rc>
    <rc><c>H </c><c>   2</c></rc>
    <rc><c>H </c><c>   2</c></rc>
    <rc><c>H </c><c>   2</c></rc>
    <rc><c>H </c><c>   2</c></rc>
    <rc><c>H </c><c>   2</c></rc>
    <rc><c>H </c><c>   2</c></rc>
    <rc><c>H </c><c>   2</c></rc>
    <rc><c>C </c><c>   3</c></rc>
    <rc><c>C </c><c>   3</c></rc>
    <rc><c>C </c><c>   3</c></rc>
    <rc><c>C </c><c>   3</c></rc>
    <rc><c>C </c><c>   3</c></rc>
    <rc><c>C </c><c>   3</c></rc>
    <rc><c>C </c><c>   3</c></rc>
    <rc><c>C </c><c>   3</c></rc>
    <rc><c>C </c><c>   3</c></rc>
    <rc><c>C </c><c>   3</c></rc>
    <rc><c>C </c><c>   3</c></rc>
    <rc><c>C </c><c>   3</c></rc>
    <rc><c>C </c><c>   3</c></rc>
    <rc><c>C </c><c>   3</c></rc>
    <rc><c>C </c><c>   3</c></rc>
    <rc><c>C </c><c>   3</c></rc>
    <rc><c>C </c><c>   3</c></rc>
    <rc><c>C </c><c>   3</c></rc>
    <rc><c>C </c><c>   3</c></rc>
    <rc><c>C </c><c>   3</c></rc>
    <rc><c>C </c><c>   3</c></rc>
    <rc><c>C </c><c>   3</c></rc>
    <rc><c>C </c><c>   3</c></rc>
    <rc><c>C </c><c>   3</c></rc>
    <rc><c>C </c><c>   3</c></rc>
    <rc><c>C </c><c>   3</c></rc>
    <rc><c>C </c><c>   3</c></rc>
    <rc><c>C </c><c>   3</c></rc>
    <rc><c>C </c><c>   3</c></rc>
    <rc><c>C </c><c>   3</c></rc>
    <rc><c>C </c><c>   3</c></rc>
    <rc><c>C </c><c>   3</c></rc>
    <rc><c>C </c><c>   3</c></rc>
    <rc><c>C </c><c>   3</c></rc>
    <rc><c>C </c><c>   3</c></rc>
    <rc><c>C </c><c>   3</c></rc>
    <rc><c>C </c><c>   3</c></rc>
    <rc><c>C </c><c>   3</c></rc>
    <rc><c>C </c><c>   3</c></rc>
    <rc><c>C </c><c>   3</c></rc>
    <rc><c>C </c><c>   3</c></rc>
    <rc><c>C </c><c>   3</c></rc>
    <rc><c>C </c><c>   3</c></rc>
    <rc><c>C </c><c>   3</c></rc>
    <rc><c>C </c><c>   3</c></rc>
    <rc><c>C </c><c>   3</c></rc>
    <rc><c>C </c><c>   3</c></rc>
    <rc><c>C </c><c>   3</c></rc>
    <rc><c>C </c><c>   3</c></rc>
    <rc><c>C </c><c>   3</c></rc>
    <rc><c>C </c><c>   3</c></rc>
    <rc><c>C </c><c>   3</c></rc>
    <rc><c>C </c><c>   3</c></rc>
    <rc><c>C </c><c>   3</c></rc>
    <rc><c>C </c><c>   3</c></rc>
    <rc><c>C </c><c>   3</c></rc>
    <rc><c>C </c><c>   3</c></rc>
    <rc><c>C </c><c>   3</c></rc>
    <rc><c>C </c><c>   3</c></rc>
    <rc><c>C </c><c>   3</c></rc>
    <rc><c>C </c><c>   3</c></rc>
    <rc><c>C </c><c>   3</c></rc>
    <rc><c>C </c><c>   3</c></rc>
    <rc><c>C </c><c>   3</c></rc>
    <rc><c>C </c><c>   3</c></rc>
    <rc><c>C </c><c>   3</c></rc>
    <rc><c>C </c><c>   3</c></rc>
    <rc><c>C </c><c>   3</c></rc>
    <rc><c>C </c><c>   3</c></rc>
    <rc><c>C </c><c>   3</c></rc>
    <rc><c>C </c><c>   3</c></rc>
    <rc><c>C </c><c>   3</c></rc>
    <rc><c>C </c><c>   3</c></rc>
    <rc><c>C </c><c>   3</c></rc>
    <rc><c>C </c><c>   3</c></rc>
    <rc><c>C </c><c>   3</c></rc>
    <rc><c>C </c><c>   3</c></rc>
    <rc><c>C </c><c>   3</c></rc>
    <rc><c>C </c><c>   3</c></rc>
    <rc><c>C </c><c>   3</c></rc>
    <rc><c>C </c><c>   3</c></rc>
    <rc><c>C </c><c>   3</c></rc>
    <rc><c>C </c><c>   3</c></rc>
    <rc><c>C </c><c>   3</c></rc>
    <rc><c>C </c><c>   3</c></rc>
    <rc><c>C </c><c>   3</c></rc>
    <rc><c>C </c><c>   3</c></rc>
    <rc><c>C </c><c>   3</c></rc>
    <rc><c>C </c><c>   3</c></rc>
    <rc><c>C </c><c>   3</c></rc>
    <rc><c>C </c><c>   3</c></rc>
    <rc><c>C </c><c>   3</c></rc>
    <rc><c>C </c><c>   3</c></rc>
    <rc><c>C </c><c>   3</c></rc>
    <rc><c>C </c><c>   3</c></rc>
    <rc><c>C </c><c>   3</c></rc>
    <rc><c>N </c><c>   4</c></rc>
    <rc><c>N </c><c>   4</c></rc>
    <rc><c>N </c><c>   4</c></rc>
    <rc><c>N </c><c>   4</c></rc>
    <rc><c>N </c><c>   4</c></rc>
    <rc><c>N </c><c>   4</c></rc>
   </set>
  </array>
  <array name="atomtypes" >
   <dimension dim="1">type</dimension>
   <field type="int">atomspertype</field>
   <field type="string">element</field>
   <field>mass</field>
   <field>valence</field>
   <field type="string">pseudopotential</field>
   <set>
    <rc><c>  12</c><c>O </c><c>     16.00000000</c><c>      6.00000000</c><c>  PAW_PBE O 08Apr2002                   </c></rc>
    <rc><c>  54</c><c>H </c><c>      1.00000000</c><c>      1.00000000</c><c>  PAW_PBE H 15Jun2001                   </c></rc>
    <rc><c>  96</c><c>C </c><c>     12.01100000</c><c>      4.00000000</c><c>  PAW_PBE C 08Apr2002                   </c></rc>
    <rc><c>   6</c><c>N </c><c>     14.00100000</c><c>      5.00000000</c><c>  PAW_PBE N 08Apr2002                   </c></rc>
   </set>
  </array>
 </atominfo>
 <structure name="initialpos" >
  <crystal>
   <varray name="basis" >
    <v>      34.50908571       0.01368178       0.00000000 </v>
    <v>     -17.23225011      29.90191891       0.00000000 </v>
    <v>       0.00000000       0.00000000      20.00000000 </v>
   </varray>
   <i name="volume">  20642.47300369 </i>
   <varray name="rec_basis" >
    <v>       0.02897126       0.01669592       0.00000000 </v>
    <v>      -0.00001326       0.03343503       0.00000000 </v>
    <v>       0.00000000       0.00000000       0.05000000 </v>
   </varray>
  </crystal>
  <varray name="positions" >
   <v>       0.97643978       0.10445930       0.63923501 </v>
   <v>       0.96913239       0.88185759       0.64979462 </v>
   <v>       0.78172171       0.47043811       0.31414794 </v>
   <v>       0.81366380       0.54200089       0.33896651 </v>
   <v>       0.52488727       0.32793753       0.33115990 </v>
   <v>       0.45272932       0.29138745       0.35303101 </v>
   <v>       0.66711631       0.20980480       0.32121840 </v>
   <v>       0.70416792       0.17468764       0.34340677 </v>
   <v>       0.95096557       0.03256247       0.62266427 </v>
   <v>       0.95236522       0.93420942       0.62667535 </v>
   <v>       0.11246952       0.02924545       0.66202565 </v>
   <v>       0.05839036       0.04223335       0.63308419 </v>
   <v>       0.90963945       0.96185127       0.47999863 </v>
   <v>       0.73409479       0.13382281       0.47855304 </v>
   <v>       0.85748179       0.26016173       0.47487688 </v>
   <v>       0.73137526       0.25710014       0.48319391 </v>
   <v>       0.86010577       0.61333422       0.46769774 </v>
   <v>       0.73799496       0.48769540       0.48962123 </v>
   <v>       0.38187994       0.26155035       0.48951209 </v>
   <v>       0.86415051       0.20552854       0.39030097 </v>
   <v>       0.90668450       0.16507070       0.38982462 </v>
   <v>       0.86229653       0.67305827       0.39240036 </v>
   <v>       0.90345224       0.75588399       0.39285371 </v>
   <v>       0.32246502       0.12923757       0.40654172 </v>
   <v>       0.23964470       0.08655681       0.40839824 </v>
   <v>       0.58534089       0.48057950       0.41234501 </v>
   <v>       0.66482411       0.54033051       0.41174342 </v>
   <v>       0.03319936       0.96056822       0.50175977 </v>
   <v>       0.03458246       0.08591672       0.49258843 </v>
   <v>       0.73480431       0.61068454       0.49595875 </v>
   <v>       0.38433884       0.13774903       0.48894625 </v>
   <v>       0.50756333       0.26355396       0.49231564 </v>
   <v>       0.88951371       0.08282442       0.37267804 </v>
   <v>       0.93081395       0.04119485       0.37792569 </v>
   <v>       0.88815632       0.82008098       0.37879499 </v>
   <v>       0.93005244       0.90284643       0.38425016 </v>
   <v>       0.17612518       0.10236705       0.38800079 </v>
   <v>       0.09330575       0.06104600       0.39193668 </v>
   <v>       0.87230810       0.40753193       0.38677821 </v>
   <v>       0.85258876       0.32804092       0.38869241 </v>
   <v>       0.82108889       0.43847453       0.37229746 </v>
   <v>       0.55676203       0.39921539       0.39221936 </v>
   <v>       0.51552484       0.12076268       0.40000286 </v>
   <v>       0.45604151       0.14090857       0.40168714 </v>
   <v>       0.59605547       0.17062572       0.38226820 </v>
   <v>       0.83273533       0.08958195       0.56230900 </v>
   <v>       0.78971177       0.12946749       0.56192365 </v>
   <v>       0.91511008       0.11330393       0.58280259 </v>
   <v>       0.83240631       0.75514035       0.57052006 </v>
   <v>       0.79113711       0.67239302       0.56973664 </v>
   <v>       0.91206011       0.81481435       0.58954563 </v>
   <v>       0.23970447       0.16477700       0.57639895 </v>
   <v>       0.32248623       0.20775822       0.57389001 </v>
   <v>       0.17945701       0.08428374       0.60104245 </v>
   <v>       0.86311328       0.46972334       0.57808034 </v>
   <v>       0.84530250       0.53078897       0.57478624 </v>
   <v>       0.78796989       0.31130995       0.57916316 </v>
   <v>       0.80792703       0.39070972       0.57785692 </v>
   <v>       0.52656530       0.40423339       0.60046214 </v>
   <v>       0.46525895       0.32567061       0.59336890 </v>
   <v>       0.68672948       0.48819651       0.59455324 </v>
   <v>       0.60725149       0.42880370       0.59588048 </v>
   <v>       0.59059449       0.13428938       0.59009119 </v>
   <v>       0.66936637       0.15213097       0.58341125 </v>
   <v>       0.50577414       0.20811166       0.58997499 </v>
   <v>       0.56507290       0.18790148       0.58878629 </v>
   <v>       0.96950294       0.02657441       0.48536779 </v>
   <v>       0.94603575       0.97980292       0.48334317 </v>
   <v>       0.94498630       0.05179851       0.48305315 </v>
   <v>       0.79712184       0.26435613       0.47998368 </v>
   <v>       0.75026983       0.23948134       0.48187300 </v>
   <v>       0.72727690       0.19268693       0.48056704 </v>
   <v>       0.75157406       0.17026618       0.48005945 </v>
   <v>       0.79851178       0.19447909       0.47718888 </v>
   <v>       0.82099053       0.24147568       0.47589756 </v>
   <v>       0.75548471       0.52416133       0.48799799 </v>
   <v>       0.80176723       0.54786215       0.47760700 </v>
   <v>       0.82399132       0.59449615       0.47515935 </v>
   <v>       0.80006827       0.61734628       0.48236314 </v>
   <v>       0.44741569       0.26799724       0.49049133 </v>
   <v>       0.90399212       0.08047824       0.41996000 </v>
   <v>       0.92679167       0.05664428       0.42300472 </v>
   <v>       0.85729700       0.18012581       0.42816681 </v>
   <v>       0.88093506       0.15711773       0.42757171 </v>
   <v>       0.90235234       0.83673601       0.42626581 </v>
   <v>       0.92547169       0.88328011       0.42941284 </v>
   <v>       0.85580384       0.69106376       0.43164115 </v>
   <v>       0.87863383       0.73764080       0.43157520 </v>
   <v>       0.15901509       0.08950388       0.43560690 </v>
   <v>       0.11247807       0.06668262       0.43784526 </v>
   <v>       0.30432205       0.13697564       0.44398801 </v>
   <v>       0.25774985       0.11324250       0.44470606 </v>
   <v>       0.82375908       0.52019345       0.47233810 </v>
   <v>       0.81977714       0.49454033       0.41544660 </v>
   <v>       0.82832426       0.45913609       0.41684730 </v>
   <v>       0.84233161       0.44831456       0.47621348 </v>
   <v>       0.84072415       0.40475100       0.48151146 </v>
   <v>       0.85425707       0.38669055       0.42959453 </v>
   <v>       0.84339842       0.34193289       0.43078989 </v>
   <v>       0.47524391       0.31767219       0.48940229 </v>
   <v>       0.50078945       0.34083499       0.43319943 </v>
   <v>       0.53622625       0.38457798       0.43657701 </v>
   <v>       0.60732180       0.48246715       0.45300477 </v>
   <v>       0.65203349       0.51631717       0.45280767 </v>
   <v>       0.67758034       0.17063082       0.47963197 </v>
   <v>       0.65440730       0.17299217       0.42337999 </v>
   <v>       0.61058875       0.16455461       0.42661647 </v>
   <v>       0.58727467       0.15213476       0.48737724 </v>
   <v>       0.51323089       0.13950545       0.44230486 </v>
   <v>       0.47947800       0.15059528       0.44337662 </v>
   <v>       0.89837539       0.10061587       0.47740488 </v>
   <v>       0.87278484       0.12451974       0.47612774 </v>
   <v>       0.82399701       0.17043096       0.47623809 </v>
   <v>       0.82393900       0.66680990       0.48122938 </v>
   <v>       0.96873021       0.95593115       0.49023058 </v>
   <v>       0.93981525       0.07303250       0.53944379 </v>
   <v>       0.94352336       0.90624421       0.48956777 </v>
   <v>       0.93755691       0.87977990       0.54622594 </v>
   <v>       0.01536089       0.97911291       0.49685135 </v>
   <v>       0.03922162       0.02586264       0.49653987 </v>
   <v>       0.01611458       0.04945402       0.49110677 </v>
   <v>       0.73081926       0.54622305       0.49452304 </v>
   <v>       0.75345388       0.59292198       0.49144376 </v>
   <v>       0.44896526       0.19794290       0.49139776 </v>
   <v>       0.47107167       0.24480984       0.49183138 </v>
   <v>       0.40073199       0.24391571       0.49106162 </v>
   <v>       0.37786197       0.19693732       0.48965023 </v>
   <v>       0.40222751       0.17424309       0.48862455 </v>
   <v>       0.81783871       0.31372975       0.48327988 </v>
   <v>       0.54727152       0.40772721       0.49749403 </v>
   <v>       0.59073796       0.44966955       0.50331786 </v>
   <v>       0.68165919       0.51771637       0.50213466 </v>
   <v>       0.54535612       0.15373842       0.49352736 </v>
   <v>       0.47745991       0.17702145       0.49510395 </v>
   <v>       0.91735256       0.09710467       0.53736660 </v>
   <v>       0.83971215       0.11506484       0.52451964 </v>
   <v>       0.81534243       0.13725734       0.52404526 </v>
   <v>       0.91475435       0.83326731       0.54394280 </v>
   <v>       0.89624144       0.81087404       0.48375785 </v>
   <v>       0.87103343       0.76146344       0.48192192 </v>
   <v>       0.83912013       0.73720317       0.53143174 </v>
   <v>       0.81564026       0.69067835       0.53067428 </v>
   <v>       0.08896631       0.05047432       0.49812261 </v>
   <v>       0.11484892       0.05774281       0.55586605 </v>
   <v>       0.16142625       0.08042764       0.55454389 </v>
   <v>       0.18433846       0.09721402       0.49419112 </v>
   <v>       0.23376181       0.12257312       0.49263365 </v>
   <v>       0.25780906       0.15682506       0.53916475 </v>
   <v>       0.30431911       0.18121874       0.53741423 </v>
   <v>       0.32837359       0.17150061       0.49013376 </v>
   <v>       0.85078994       0.47644893       0.53178010 </v>
   <v>       0.84137897       0.51130307       0.52976198 </v>
   <v>       0.80710382       0.33262905       0.53737708 </v>
   <v>       0.81871193       0.37742798       0.53686834 </v>
   <v>       0.51950778       0.38653950       0.55284368 </v>
   <v>       0.48450389       0.34245962       0.54871225 </v>
   <v>       0.66428506       0.48697658       0.55511464 </v>
   <v>       0.61946656       0.45379242       0.55610902 </v>
   <v>       0.60842357       0.14531133       0.54262925 </v>
   <v>       0.65264411       0.15470007       0.53872491 </v>
   <v>       0.50753214       0.18835635       0.54871435 </v>
   <v>       0.54063324       0.17658609       0.54830140 </v>
   <v>       0.95737515       0.06969259       0.60541530 </v>
   <v>       0.95459782       0.90050336       0.61254861 </v>
   <v>       0.80361327       0.50289296       0.35152119 </v>
   <v>       0.49216778       0.31815123       0.36760490 </v>
   <v>       0.67714375       0.18711762       0.35784583 </v>
   <v>       0.09336050       0.04166375       0.62198562 </v>
  </varray>
 </structure>
 <calculation>
  <scstep>
   <time name="dav">  717.55  724.52</time>
   <time name="total">  717.90  724.87</time>
   <energy>
    <i name="alphaZ">     65.66801812 </i>
    <i name="ewald">  75607.49284368 </i>
    <i name="hartreedc"> -93319.05435429 </i>
    <i name="XCdc">   1920.30467280 </i>
    <i name="pawpsdc">  49017.26261720 </i>
    <i name="pawaedc"> -49115.22798803 </i>
    <i name="eentropy">     -0.00000000 </i>
    <i name="bandstr">  -6927.98858237 </i>
    <i name="atom">  21576.00200584 </i>
    <i name="e_fr_energy">  -1175.54076704 </i>
    <i name="e_wo_entrp">  -1175.54076704 </i>
    <i name="e_0_energy">  -1175.54076704 </i>
   </energy>
  </scstep>
  <scstep>
   <time name="dav">  802.14  809.92</time>
   <time name="total">  802.15  809.93</time>
   <energy>
    <i name="e_fr_energy">  -1176.01475032 </i>
    <i name="e_wo_entrp">  -1176.01475032 </i>
    <i name="e_0_energy">  -1176.01475032 </i>
   </energy>
  </scstep>
  <scstep>
   <time name="dav">  898.28  906.92</time>
   <time name="total">  898.29  906.92</time>
   <energy>
    <i name="e_fr_energy">  -1176.02966690 </i>
    <i name="e_wo_entrp">  -1176.02966690 </i>
    <i name="e_0_energy">  -1176.02966690 </i>
   </energy>
  </scstep>
  <scstep>
   <time name="dav">  794.42  801.75</time>
   <time name="total">  794.42  801.75</time>
   <energy>
    <i name="e_fr_energy">  -1176.02991763 </i>
    <i name="e_wo_entrp">  -1176.02991763 </i>
    <i name="e_0_energy">  -1176.02991763 </i>
   </energy>
  </scstep>
  <scstep>
   <time name="dav">  767.28  774.49</time>
   <time name="total">  767.29  774.50</time>
   <energy>
    <i name="e_fr_energy">  -1176.02993328 </i>
    <i name="e_wo_entrp">  -1176.02993328 </i>
    <i name="e_0_energy">  -1176.02993328 </i>
   </energy>
  </scstep>
  <scstep>
   <time name="dav">  616.85  622.85</time>
   <time name="total">  616.86  622.86</time>
   <energy>
    <i name="alphaZ">     65.66801812 </i>
    <i name="ewald">  75607.49284368 </i>
    <i name="hartreedc"> -93319.05435429 </i>
    <i name="XCdc">   1920.30467280 </i>
    <i name="pawpsdc">  49017.26261720 </i>
    <i name="pawaedc"> -49115.22798803 </i>
    <i name="eentropy">     -0.00000000 </i>
    <i name="bandstr">  -6928.47774904 </i>
    <i name="atom">  21576.00200584 </i>
    <i name="e_fr_energy">  -1176.02993371 </i>
    <i name="e_wo_entrp">  -1176.02993371 </i>
    <i name="e_0_energy">  -1176.02993371 </i>
   </energy>
  </scstep>
  <structure>
   <crystal>
    <varray name="basis" >
     <v>      34.50908571       0.01368178       0.00000000 </v>
     <v>     -17.23225011      29.90191891       0.00000000 </v>
     <v>       0.00000000       0.00000000      20.00000000 </v>
    </varray>
    <i name="volume">  20642.47300369 </i>
    <varray name="rec_basis" >
     <v>       0.02897126       0.01669592       0.00000000 </v>
     <v>      -0.00001326       0.03343503       0.00000000 </v>
     <v>       0.00000000       0.00000000       0.05000000 </v>
    </varray>
   </crystal>
   <varray name="positions" >
    <v>       0.97643978       0.10445930       0.63923501 </v>
    <v>       0.96913239       0.88185759       0.64979462 </v>
    <v>       0.78172171       0.47043811       0.31414794 </v>
    <v>       0.81366380       0.54200089       0.33896651 </v>
    <v>       0.52488727       0.32793753       0.33115990 </v>
    <v>       0.45272932       0.29138745       0.35303101 </v>
    <v>       0.66711631       0.20980480       0.32121840 </v>
    <v>       0.70416792       0.17468764       0.34340677 </v>
    <v>       0.95096557       0.03256247       0.62266427 </v>
    <v>       0.95236522       0.93420942       0.62667535 </v>
    <v>       0.11246952       0.02924545       0.66202565 </v>
    <v>       0.05839036       0.04223335       0.63308419 </v>
    <v>       0.90963945       0.96185127       0.47999863 </v>
    <v>       0.73409479       0.13382281       0.47855304 </v>
    <v>       0.85748179       0.26016173       0.47487688 </v>
    <v>       0.73137526       0.25710014       0.48319391 </v>
    <v>       0.86010577       0.61333422       0.46769774 </v>
    <v>       0.73799496       0.48769540       0.48962123 </v>
    <v>       0.38187994       0.26155035       0.48951209 </v>
    <v>       0.86415051       0.20552854       0.39030097 </v>
    <v>       0.90668450       0.16507070       0.38982462 </v>
    <v>       0.86229653       0.67305827       0.39240036 </v>
    <v>       0.90345224       0.75588399       0.39285371 </v>
    <v>       0.32246502       0.12923757       0.40654172 </v>
    <v>       0.23964470       0.08655681       0.40839824 </v>
    <v>       0.58534089       0.48057950       0.41234501 </v>
    <v>       0.66482411       0.54033051       0.41174342 </v>
    <v>       0.03319936       0.96056822       0.50175977 </v>
    <v>       0.03458246       0.08591672       0.49258843 </v>
    <v>       0.73480431       0.61068454       0.49595875 </v>
    <v>       0.38433884       0.13774903       0.48894625 </v>
    <v>       0.50756333       0.26355396       0.49231564 </v>
    <v>       0.88951371       0.08282442       0.37267804 </v>
    <v>       0.93081395       0.04119485       0.37792569 </v>
    <v>       0.88815632       0.82008098       0.37879499 </v>
    <v>       0.93005244       0.90284643       0.38425016 </v>
    <v>       0.17612518       0.10236705       0.38800079 </v>
    <v>       0.09330575       0.06104600       0.39193668 </v>
    <v>       0.87230810       0.40753193       0.38677821 </v>
    <v>       0.85258876       0.32804092       0.38869241 </v>
    <v>       0.82108889       0.43847453       0.37229746 </v>
    <v>       0.55676203       0.39921539       0.39221936 </v>
    <v>       0.51552484       0.12076268       0.40000286 </v>
    <v>       0.45604151       0.14090857       0.40168714 </v>
    <v>       0.59605547       0.17062572       0.38226820 </v>
    <v>       0.83273533       0.08958195       0.56230900 </v>
    <v>       0.78971177       0.12946749       0.56192365 </v>
    <v>       0.91511008       0.11330393       0.58280259 </v>
    <v>       0.83240631       0.75514035       0.57052006 </v>
    <v>       0.79113711       0.67239302       0.56973664 </v>
    <v>       0.91206011       0.81481435       0.58954563 </v>
    <v>       0.23970447       0.16477700       0.57639895 </v>
    <v>       0.32248623       0.20775822       0.57389001 </v>
    <v>       0.17945701       0.08428374       0.60104245 </v>
    <v>       0.86311328       0.46972334       0.57808034 </v>
    <v>       0.84530250       0.53078897       0.57478624 </v>
    <v>       0.78796989       0.31130995       0.57916316 </v>
    <v>       0.80792703       0.39070972       0.57785692 </v>
    <v>       0.52656530       0.40423339       0.60046214 </v>
    <v>       0.46525895       0.32567061       0.59336890 </v>
    <v>       0.68672948       0.48819651       0.59455324 </v>
    <v>       0.60725149       0.42880370       0.59588048 </v>
    <v>       0.59059449       0.13428938       0.59009119 </v>
    <v>       0.66936637       0.15213097       0.58341125 </v>
    <v>       0.50577414       0.20811166       0.58997499 </v>
    <v>       0.56507290       0.18790148       0.58878629 </v>
    <v>       0.96950294       0.02657441       0.48536779 </v>
    <v>       0.94603575       0.97980292       0.48334317 </v>
    <v>       0.94498630       0.05179851       0.48305315 </v>
    <v>       0.79712184       0.26435613       0.47998368 </v>
    <v>       0.75026983       0.23948134       0.48187300 </v>
    <v>       0.72727690       0.19268693       0.48056704 </v>
    <v>       0.75157406       0.17026618       0.48005945 </v>
    <v>       0.79851178       0.19447909       0.47718888 </v>
    <v>       0.82099053       0.24147568       0.47589756 </v>
    <v>       0.75548471       0.52416133       0.48799799 </v>
    <v>       0.80176723       0.54786215       0.47760700 </v>
    <v>       0.82399132       0.59449615       0.47515935 </v>
    <v>       0.80006827       0.61734628       0.48236314 </v>
    <v>       0.44741569       0.26799724       0.49049133 </v>
    <v>       0.90399212       0.08047824       0.41996000 </v>
    <v>       0.92679167       0.05664428       0.42300472 </v>
    <v>       0.85729700       0.18012581       0.42816681 </v>
    <v>       0.88093506       0.15711773       0.42757171 </v>
    <v>       0.90235234       0.83673601       0.42626581 </v>
    <v>       0.92547169       0.88328011       0.42941284 </v>
    <v>       0.85580384       0.69106376       0.43164115 </v>
    <v>       0.87863383       0.73764080       0.43157520 </v>
    <v>       0.15901509       0.08950388       0.43560690 </v>
    <v>       0.11247807       0.06668262       0.43784526 </v>
    <v>       0.30432205       0.13697564       0.44398801 </v>
    <v>       0.25774985       0.11324250       0.44470606 </v>
    <v>       0.82375908       0.52019345       0.47233810 </v>
    <v>       0.81977714       0.49454033       0.41544660 </v>
    <v>       0.82832426       0.45913609       0.41684730 </v>
    <v>       0.84233161       0.44831456       0.47621348 </v>
    <v>       0.84072415       0.40475100       0.48151146 </v>
    <v>       0.85425707       0.38669055       0.42959453 </v>
    <v>       0.84339842       0.34193289       0.43078989 </v>
    <v>       0.47524391       0.31767219       0.48940229 </v>
    <v>       0.50078945       0.34083499       0.43319943 </v>
    <v>       0.53622625       0.38457798       0.43657701 </v>
    <v>       0.60732180       0.48246715       0.45300477 </v>
    <v>       0.65203349       0.51631717       0.45280767 </v>
    <v>       0.67758034       0.17063082       0.47963197 </v>
    <v>       0.65440730       0.17299217       0.42337999 </v>
    <v>       0.61058875       0.16455461       0.42661647 </v>
    <v>       0.58727467       0.15213476       0.48737724 </v>
    <v>       0.51323089       0.13950545       0.44230486 </v>
    <v>       0.47947800       0.15059528       0.44337662 </v>
    <v>       0.89837539       0.10061587       0.47740488 </v>
    <v>       0.87278484       0.12451974       0.47612774 </v>
    <v>       0.82399701       0.17043096       0.47623809 </v>
    <v>       0.82393900       0.66680990       0.48122938 </v>
    <v>       0.96873021       0.95593115       0.49023058 </v>
    <v>       0.93981525       0.07303250       0.53944379 </v>
    <v>       0.94352336       0.90624421       0.48956777 </v>
    <v>       0.93755691       0.87977990       0.54622594 </v>
    <v>       0.01536089       0.97911291       0.49685135 </v>
    <v>       0.03922162       0.02586264       0.49653987 </v>
    <v>       0.01611458       0.04945402       0.49110677 </v>
    <v>       0.73081926       0.54622305       0.49452304 </v>
    <v>       0.75345388       0.59292198       0.49144376 </v>
    <v>       0.44896526       0.19794290       0.49139776 </v>
    <v>       0.47107167       0.24480984       0.49183138 </v>
    <v>       0.40073199       0.24391571       0.49106162 </v>
    <v>       0.37786197       0.19693732       0.48965023 </v>
    <v>       0.40222751       0.17424309       0.48862455 </v>
    <v>       0.81783871       0.31372975       0.48327988 </v>
    <v>       0.54727152       0.40772721       0.49749403 </v>
    <v>       0.59073796       0.44966955       0.50331786 </v>
    <v>       0.68165919       0.51771637       0.50213466 </v>
    <v>       0.54535612       0.15373842       0.49352736 </v>
    <v>       0.47745991       0.17702145       0.49510395 </v>
    <v>       0.91735256       0.09710467       0.53736660 </v>
    <v>       0.83971215       0.11506484       0.52451964 </v>
    <v>       0.81534243       0.13725734       0.52404526 </v>
    <v>       0.91475435       0.83326731       0.54394280 </v>
    <v>       0.89624144       0.81087404       0.48375785 </v>
    <v>       0.87103343       0.76146344       0.48192192 </v>
    <v>       0.83912013       0.73720317       0.53143174 </v>
    <v>       0.81564026       0.69067835       0.53067428 </v>
    <v>       0.08896631       0.05047432       0.49812261 </v>
    <v>       0.11484892       0.05774281       0.55586605 </v>
    <v>       0.16142625       0.08042764       0.55454389 </v>
    <v>       0.18433846       0.09721402       0.49419112 </v>
    <v>       0.23376181       0.12257312       0.49263365 </v>
    <v>       0.25780906       0.15682506       0.53916475 </v>
    <v>       0.30431911       0.18121874       0.53741423 </v>
    <v>       0.32837359       0.17150061       0.49013376 </v>
    <v>       0.85078994       0.47644893       0.53178010 </v>
    <v>       0.84137897       0.51130307       0.52976198 </v>
    <v>       0.80710382       0.33262905       0.53737708 </v>
    <v>       0.81871193       0.37742798       0.53686834 </v>
    <v>       0.51950778       0.38653950       0.55284368 </v>
    <v>       0.48450389       0.34245962       0.54871225 </v>
    <v>       0.66428506       0.48697658       0.55511464 </v>
    <v>       0.61946656       0.45379242       0.55610902 </v>
    <v>       0.60842357       0.14531133       0.54262925 </v>
    <v>       0.65264411       0.15470007       0.53872491 </v>
    <v>       0.50753214       0.18835635       0.54871435 </v>
    <v>       0.54063324       0.17658609       0.54830140 </v>
    <v>       0.95737515       0.06969259       0.60541530 </v>
    <v>       0.95459782       0.90050336       0.61254861 </v>
    <v>       0.80361327       0.50289296       0.35152119 </v>
    <v>       0.49216778       0.31815123       0.36760490 </v>
    <v>       0.67714375       0.18711762       0.35784583 </v>
    <v>       0.09336050       0.04166375       0.62198562 </v>
   </varray>
  </structure>
  <varray name="forces" >
   <v>       0.00005266       0.00309475      -0.00026954 </v>
   <v>      -0.00356828       0.00208617      -0.00214626 </v>
   <v>      -0.00212165      -0.00302248      -0.00274700 </v>
   <v>       0.00065554      -0.00211708      -0.00014036 </v>
   <v>      -0.00246635       0.00351163      -0.00160460 </v>
   <v>       0.00208596      -0.00365228       0.00484338 </v>
   <v>       0.00056415       0.00017312      -0.00160146 </v>
   <v>       0.00387679       0.00077169      -0.00160114 </v>
   <v>       0.00251375      -0.00049241      -0.00046776 </v>
   <v>      -0.00178553       0.00194636       0.00150298 </v>
   <v>       0.00042428       0.00051602      -0.00230867 </v>
   <v>      -0.00258943      -0.00208887       0.00110040 </v>
   <v>       0.00036075       0.00015699      -0.00084630 </v>
   <v>       0.00075723      -0.00010064      -0.00091255 </v>
   <v>      -0.00089425      -0.00000722      -0.00061101 </v>
   <v>      -0.00048955      -0.00023868      -0.00137111 </v>
   <v>      -0.00068648      -0.00021581       0.00060466 </v>
   <v>       0.00021221       0.00022353       0.00105757 </v>
   <v>      -0.00063660      -0.00055676       0.00116019 </v>
   <v>       0.00059241       0.00124934      -0.00037299 </v>
   <v>       0.00011233       0.00025663      -0.00092595 </v>
   <v>      -0.00044421       0.00021785      -0.00035282 </v>
   <v>      -0.00079921      -0.00033466       0.00029313 </v>
   <v>      -0.00025766      -0.00048822       0.00048602 </v>
   <v>       0.00017768       0.00013442       0.00154012 </v>
   <v>       0.00029173       0.00074382       0.00068064 </v>
   <v>      -0.00041597       0.00050971       0.00061573 </v>
   <v>      -0.00058173       0.00025727       0.00052644 </v>
   <v>      -0.00038133      -0.00003094       0.00012940 </v>
   <v>       0.00069977      -0.00050317      -0.00005418 </v>
   <v>       0.00049621       0.00073526      -0.00029751 </v>
   <v>      -0.00137743      -0.00033015       0.00152862 </v>
   <v>       0.00000898       0.00049577      -0.00198156 </v>
   <v>       0.00018553      -0.00028740      -0.00158129 </v>
   <v>      -0.00036411       0.00028349       0.00001560 </v>
   <v>       0.00018056      -0.00003221       0.00049076 </v>
   <v>       0.00096672      -0.00063496      -0.00014192 </v>
   <v>       0.00109520       0.00098393      -0.00009790 </v>
   <v>      -0.00004004       0.00030876      -0.00078468 </v>
   <v>       0.00017612      -0.00036544      -0.00149018 </v>
   <v>      -0.00112323       0.00047549       0.00001652 </v>
   <v>      -0.00284631       0.00030092      -0.00002908 </v>
   <v>      -0.00038370      -0.00038237       0.00115091 </v>
   <v>      -0.00051203       0.00013557       0.00120457 </v>
   <v>      -0.00091004      -0.00249538       0.00013146 </v>
   <v>       0.00013406      -0.00004918      -0.00129754 </v>
   <v>       0.00080544       0.00060227      -0.00026535 </v>
   <v>      -0.00054581      -0.00044590      -0.00135538 </v>
   <v>       0.00046871       0.00008008       0.00049755 </v>
   <v>       0.00104912       0.00057095       0.00033966 </v>
   <v>      -0.00018945      -0.00034179       0.00018227 </v>
   <v>       0.00031817       0.00027031       0.00034020 </v>
   <v>      -0.00009622      -0.00027717       0.00036225 </v>
   <v>      -0.00070447       0.00011924      -0.00000781 </v>
   <v>       0.00041134      -0.00011619      -0.00001295 </v>
   <v>      -0.00069602      -0.00046680      -0.00016279 </v>
   <v>       0.00066533      -0.00006106      -0.00064139 </v>
   <v>       0.00079181       0.00027927      -0.00017870 </v>
   <v>       0.00199109      -0.00003522       0.00121452 </v>
   <v>       0.00090767      -0.00006678       0.00231669 </v>
   <v>       0.00046385      -0.00129447      -0.00023876 </v>
   <v>       0.00069453      -0.00031220      -0.00101569 </v>
   <v>       0.00097332       0.00219634      -0.00006670 </v>
   <v>       0.00005416       0.00080334      -0.00180204 </v>
   <v>      -0.00043603       0.00077469       0.00052635 </v>
   <v>       0.00065134       0.00176924       0.00049767 </v>
   <v>       0.00084646      -0.00074027      -0.00062801 </v>
   <v>       0.00139427      -0.00033291      -0.00100697 </v>
   <v>      -0.00102703       0.00089938      -0.00168569 </v>
   <v>      -0.00066505      -0.00068749      -0.00110857 </v>
   <v>      -0.00005847      -0.00150492      -0.00138603 </v>
   <v>      -0.00060358       0.00008787      -0.00131946 </v>
   <v>       0.00048747      -0.00044827      -0.00120784 </v>
   <v>      -0.00056147      -0.00060346      -0.00098814 </v>
   <v>       0.00014983      -0.00027884      -0.00034514 </v>
   <v>       0.00162421      -0.00137798       0.00097369 </v>
   <v>       0.00023728      -0.00071628       0.00019624 </v>
   <v>      -0.00051326       0.00067177       0.00034370 </v>
   <v>      -0.00032038       0.00080590       0.00032100 </v>
   <v>      -0.00050794      -0.00016999       0.00208928 </v>
   <v>       0.00079274      -0.00002694      -0.00138796 </v>
   <v>       0.00046553       0.00097494      -0.00067344 </v>
   <v>      -0.00018354       0.00004610      -0.00024205 </v>
   <v>      -0.00023482       0.00053473      -0.00056664 </v>
   <v>      -0.00016165       0.00019216       0.00004233 </v>
   <v>       0.00003484       0.00042019       0.00015900 </v>
   <v>      -0.00034317       0.00031046      -0.00040894 </v>
   <v>      -0.00011220      -0.00033560      -0.00049643 </v>
   <v>       0.00064827      -0.00007639       0.00033318 </v>
   <v>       0.00023671       0.00032347      -0.00064368 </v>
   <v>       0.00048492      -0.00043676       0.00015225 </v>
   <v>      -0.00018187      -0.00076844       0.00014230 </v>
   <v>      -0.00072782       0.00035706       0.00033973 </v>
   <v>       0.00049731      -0.00037449       0.00015620 </v>
   <v>      -0.00000373       0.00088092      -0.00042630 </v>
   <v>      -0.00006628      -0.00031366      -0.00067203 </v>
   <v>       0.00055359      -0.00038339      -0.00152353 </v>
   <v>      -0.00106720       0.00051538       0.00070037 </v>
   <v>      -0.00137441       0.00007339      -0.00047820 </v>
   <v>       0.00103292       0.00006643       0.00121380 </v>
   <v>      -0.00055852      -0.00042610       0.00047238 </v>
   <v>      -0.00061229      -0.00030106       0.00083732 </v>
   <v>      -0.00013084      -0.00002681       0.00091737 </v>
   <v>      -0.00035594      -0.00000920       0.00072351 </v>
   <v>      -0.00032221      -0.00087329      -0.00141891 </v>
   <v>       0.00154586      -0.00113521      -0.00088161 </v>
   <v>       0.00065049      -0.00075894      -0.00186205 </v>
   <v>       0.00048722       0.00092025      -0.00091941 </v>
   <v>       0.00063388      -0.00023561       0.00117938 </v>
   <v>      -0.00054825       0.00037328       0.00124358 </v>
   <v>       0.00054537       0.00059783      -0.00041802 </v>
   <v>       0.00035760       0.00013846      -0.00065724 </v>
   <v>       0.00005111       0.00069811      -0.00063984 </v>
   <v>       0.00013961      -0.00025262      -0.00013490 </v>
   <v>      -0.00053858       0.00039152       0.00055587 </v>
   <v>      -0.00129747       0.00080174       0.00022783 </v>
   <v>      -0.00021667       0.00031333       0.00005704 </v>
   <v>      -0.00005985       0.00111466      -0.00058624 </v>
   <v>       0.00046441       0.00032941      -0.00005698 </v>
   <v>       0.00046567       0.00012545      -0.00050025 </v>
   <v>      -0.00031684      -0.00003320      -0.00028938 </v>
   <v>      -0.00131399      -0.00007391       0.00069176 </v>
   <v>      -0.00035789       0.00063810       0.00000655 </v>
   <v>      -0.00080464      -0.00027458       0.00106177 </v>
   <v>      -0.00052224       0.00021438       0.00104843 </v>
   <v>       0.00027262       0.00004681       0.00103474 </v>
   <v>      -0.00042724      -0.00065783       0.00048889 </v>
   <v>       0.00119843      -0.00002358       0.00068229 </v>
   <v>      -0.00027620       0.00034962      -0.00051774 </v>
   <v>      -0.00006255       0.00036835      -0.00019468 </v>
   <v>      -0.00011908      -0.00008760      -0.00007268 </v>
   <v>       0.00102757      -0.00087218       0.00062658 </v>
   <v>      -0.00034416       0.00001684      -0.00054431 </v>
   <v>       0.00022396       0.00039307       0.00134513 </v>
   <v>       0.00111616      -0.00088703      -0.00125866 </v>
   <v>      -0.00026761      -0.00010069      -0.00099975 </v>
[...]
       <r>   -17.6326     3.6156   112.4184 </r>
       <r>   -17.5169    18.1710   114.8697 </r>
       <r>   -17.4012    33.1076   119.9984 </r>
       <r>   -17.2854     0.0000   120.0000 </r>
       <r>   -17.1697     0.0000   120.0000 </r>
       <r>   -17.0540     0.0019   120.0002 </r>
       <r>   -16.9382    25.0990   126.9048 </r>
       <r>   -16.8225    34.3056   131.9703 </r>
       <r>   -16.7068     0.0000   132.0000 </r>
       <r>   -16.5910     0.0000   132.0000 </r>
       <r>   -16.4753     0.0000   132.0000 </r>
       <r>   -16.3595     0.0000   132.0000 </r>
       <r>   -16.2438     0.0000   132.0000 </r>
       <r>   -16.1281     0.0000   132.0000 </r>
       <r>   -16.0123     0.3345   132.0387 </r>
       <r>   -15.8966    17.0083   137.9684 </r>
       <r>   -15.7809    32.9560   143.8141 </r>
       <r>   -15.6651     0.0000   144.0000 </r>
       <r>   -15.5494     0.0000   144.0000 </r>
       <r>   -15.4337     0.0000   144.0000 </r>
       <r>   -15.3179    17.2810   146.0000 </r>
       <r>   -15.2022    22.0505   148.5520 </r>
       <r>   -15.0865    51.5746   155.9689 </r>
       <r>   -14.9707    17.4299   158.0172 </r>
       <r>   -14.8550    16.1988   161.8748 </r>
       <r>   -14.7393    21.9872   165.8780 </r>
       <r>   -14.6235    25.1832   170.0146 </r>
       <r>   -14.5078    17.2810   174.0000 </r>
       <r>   -14.3921    34.5607   177.9999 </r>
       <r>   -14.2763    15.4816   179.7917 </r>
       <r>   -14.1606     0.6701   180.0776 </r>
       <r>   -14.0449    17.2810   184.0000 </r>
       <r>   -13.9291    30.7767   187.5619 </r>
       <r>   -13.8134    33.3183   191.8561 </r>
       <r>   -13.6977    34.5619   196.0000 </r>
       <r>   -13.5819     0.0000   196.0000 </r>
       <r>   -13.4662     0.0000   196.0000 </r>
       <r>   -13.3505    31.4512   199.6400 </r>
       <r>   -13.2347    34.5619   204.0000 </r>
       <r>   -13.1190     0.0000   204.0000 </r>
       <r>   -13.0033    34.5619   208.0000 </r>
       <r>   -12.8875    13.6285   209.5773 </r>
       <r>   -12.7718    50.1983   218.0097 </r>
       <r>   -12.6561    29.8280   222.0188 </r>
       <r>   -12.5403    27.0006   227.1249 </r>
       <r>   -12.4246     0.0000   228.0000 </r>
       <r>   -12.3089     0.0000   228.0000 </r>
       <r>   -12.1931    51.6670   233.9796 </r>
       <r>   -12.0774    17.2810   240.0000 </r>
       <r>   -11.9616    80.4394   249.9429 </r>
       <r>   -11.8459     0.0000   252.0000 </r>
       <r>   -11.7302    36.4525   256.2188 </r>
       <r>   -11.6144    61.5283   265.9209 </r>
       <r>   -11.4987    47.0256   271.4425 </r>
       <r>   -11.3830    34.5622   278.0000 </r>
       <r>   -11.2672    42.9158   283.3002 </r>
       <r>   -11.1515    18.0400   287.5878 </r>
       <r>   -11.0358     1.2606   290.1459 </r>
       <r>   -10.9200    50.0948   297.7977 </r>
       <r>   -10.8043     0.0000   302.0000 </r>
       <r>   -10.6886    51.8412   307.9998 </r>
       <r>   -10.5728    35.6706   314.1283 </r>
       <r>   -10.4571    16.9486   321.9615 </r>
       <r>   -10.3414    12.9100   323.8608 </r>
       <r>   -10.2256    14.9768   328.0000 </r>
       <r>   -10.1099    86.2950   337.9873 </r>
       <r>    -9.9942     0.0000   344.0000 </r>
       <r>    -9.8784     0.0000   344.0000 </r>
       <r>    -9.7627     0.0000   344.0000 </r>
       <r>    -9.6470    50.1558   349.8047 </r>
       <r>    -9.5312    49.7557   355.7584 </r>
       <r>    -9.4155    82.3067   365.9924 </r>
       <r>    -9.2998     0.0001   368.0000 </r>
       <r>    -9.1840    12.2652   370.0195 </r>
       <r>    -9.0683    34.6711   376.2126 </r>
       <r>    -8.9526    66.4177   387.3201 </r>
       <r>    -8.8368    11.6129   390.0107 </r>
       <r>    -8.7211    51.8425   398.0000 </r>
       <r>    -8.6054    75.5536   406.7441 </r>
       <r>    -8.4896    19.0228   410.2016 </r>
       <r>    -8.3739     4.3202   412.0000 </r>
       <r>    -8.2582    24.8067   414.8710 </r>
       <r>    -8.1424    49.3777   422.6147 </r>
       <r>    -8.0267    18.4331   428.0000 </r>
       <r>    -7.9109    52.1269   436.0329 </r>
       <r>    -7.7952     0.0000   440.0000 </r>
       <r>    -7.6795     0.0000   440.0000 </r>
       <r>    -7.5637     0.0000   440.0000 </r>
       <r>    -7.4480     0.0000   440.0000 </r>
       <r>    -7.3323    16.7826   441.9423 </r>
       <r>    -7.2165     0.0000   446.0000 </r>
       <r>    -7.1008    55.2822   452.3980 </r>
       <r>    -6.9851    68.4523   463.9223 </r>
       <r>    -6.8693    27.3238   470.0956 </r>
       <r>    -6.7536    68.8862   481.9725 </r>
       <r>    -6.6379    17.2804   485.9999 </r>
       <r>    -6.5221    17.2810   488.0000 </r>
       <r>    -6.4064    16.6911   489.9317 </r>
       <r>    -6.2907    76.4230   502.8448 </r>
       <r>    -6.1749    17.2810   512.0000 </r>
       <r>    -6.0592    52.6267   518.0907 </r>
       <r>    -5.9435    34.5618   524.0000 </r>
       <r>    -5.8277    17.2809   526.0000 </r>
       <r>    -5.7120    17.2810   528.0000 </r>
       <r>    -5.5963    46.1933   533.3461 </r>
       <r>    -5.4805    10.9467   535.2669 </r>
       <r>    -5.3648    17.2810   540.0000 </r>
       <r>    -5.2491     0.0000   540.0000 </r>
       <r>    -5.1333     0.0000   540.0000 </r>
       <r>    -5.0176     0.0000   540.0000 </r>
       <r>    -4.9019     0.0000   540.0000 </r>
       <r>    -4.7861     0.0000   540.0000 </r>
       <r>    -4.6704     0.0000   540.0000 </r>
       <r>    -4.5547     0.0000   540.0000 </r>
       <r>    -4.4389     0.0000   540.0000 </r>
       <r>    -4.3232     0.0000   540.0000 </r>
       <r>    -4.2075     0.0000   540.0000 </r>
       <r>    -4.0917     0.0000   540.0000 </r>
       <r>    -3.9760     0.0000   540.0000 </r>
       <r>    -3.8603     0.0000   540.0000 </r>
       <r>    -3.7445     0.0000   540.0000 </r>
       <r>    -3.6288     0.0000   540.0000 </r>
       <r>    -3.5130     0.0000   540.0000 </r>
       <r>    -3.3973     0.0000   540.0000 </r>
       <r>    -3.2816     0.0000   540.0000 </r>
       <r>    -3.1658     0.0000   540.0000 </r>
       <r>    -3.0501    51.5657   545.9679 </r>
       <r>    -2.9344     0.0000   546.0000 </r>
       <r>    -2.8186    21.9247   548.5374 </r>
       <r>    -2.7029    17.2810   552.0000 </r>
       <r>    -2.5872     0.0000   552.0000 </r>
       <r>    -2.4714     0.0000   552.0000 </r>
       <r>    -2.3557     0.0000   552.0000 </r>
       <r>    -2.2400     0.0000   552.0000 </r>
       <r>    -2.1242     0.0000   552.0000 </r>
       <r>    -2.0085    51.7278   557.9867 </r>
       <r>    -1.8928    47.8642   563.5395 </r>
       <r>    -1.7770     0.0000   564.0000 </r>
       <r>    -1.6613     0.0000   564.0000 </r>
       <r>    -1.5456     0.0000   564.0000 </r>
       <r>    -1.4298    78.5003   573.0852 </r>
       <r>    -1.3141    34.4516   577.9872 </r>
       <r>    -1.1984    65.8360   585.6195 </r>
       <r>    -1.0826    56.3225   595.6518 </r>
       <r>    -0.9669    17.2810   598.0000 </r>
       <r>    -0.8512    34.5625   602.0001 </r>
       <r>    -0.7354     6.0483   604.0000 </r>
       <r>    -0.6197    35.1270   608.0654 </r>
       <r>    -0.5040     0.0000   610.0000 </r>
       <r>    -0.3882    17.9974   612.0829 </r>
       <r>    -0.2725    63.1112   621.3041 </r>
       <r>    -0.1568    10.6566   624.0000 </r>
       <r>    -0.0410    29.2237   628.3155 </r>
       <r>     0.0747    34.4468   633.9867 </r>
       <r>     0.1904    28.3293   638.1453 </r>
       <r>     0.3062    40.1116   646.0090 </r>
       <r>     0.4219    36.2668   653.5973 </r>
       <r>     0.5377    48.7918   661.8136 </r>
       <r>     0.6534    70.4479   672.5199 </r>
       <r>     0.7691    76.5116   686.0883 </r>
       <r>     0.8849    90.1092   699.0287 </r>
       <r>     1.0006    93.9065   715.3015 </r>
       <r>     1.1163   100.3445   732.1133 </r>
       <r>     1.2321     4.8963   736.0000 </r>
       <r>     1.3478     0.0000   736.0000 </r>
       <r>     1.4635     0.0000   736.0000 </r>
       <r>     1.5793     0.0000   736.0000 </r>
       <r>     1.6950     0.0000   736.0000 </r>
       <r>     1.8107     0.0000   736.0000 </r>
       <r>     1.9265     0.0000   736.0000 </r>
       <r>     2.0422     0.0000   736.0000 </r>
       <r>     2.1579     0.0000   736.0000 </r>
       <r>     2.2737     0.0000   736.0000 </r>
       <r>     2.3894     0.0000   736.0000 </r>
       <r>     2.5051     0.0000   736.0000 </r>
       <r>     2.6209     0.0000   736.0000 </r>
       <r>     2.7366     0.0000   736.0000 </r>
      </set>
     </set>
    </array>
   </total>
  </dos>
 </calculation>
 <structure name="finalpos" >
  <crystal>
   <varray name="basis" >
    <v>      34.50908571       0.01368178       0.00000000 </v>
    <v>     -17.23225011      29.90191891       0.00000000 </v>
    <v>       0.00000000       0.00000000      20.00000000 </v>
   </varray>
   <i name="volume">  20642.47300369 </i>
   <varray name="rec_basis" >
    <v>       0.02897126       0.01669592       0.00000000 </v>
    <v>      -0.00001326       0.03343503       0.00000000 </v>
    <v>       0.00000000       0.00000000       0.05000000 </v>
   </varray>
  </crystal>
  <varray name="positions" >
   <v>       0.97643978       0.10445930       0.63923501 </v>
   <v>       0.96913239       0.88185759       0.64979462 </v>
   <v>       0.78172171       0.47043811       0.31414794 </v>
   <v>       0.81366380       0.54200089       0.33896651 </v>
   <v>       0.52488727       0.32793753       0.33115990 </v>
   <v>       0.45272932       0.29138745       0.35303101 </v>
   <v>       0.66711631       0.20980480       0.32121840 </v>
   <v>       0.70416792       0.17468764       0.34340677 </v>
   <v>       0.95096557       0.03256247       0.62266427 </v>
   <v>       0.95236522       0.93420942       0.62667535 </v>
   <v>       0.11246952       0.02924545       0.66202565 </v>
   <v>       0.05839036       0.04223335       0.63308419 </v>
   <v>       0.90963945       0.96185127       0.47999863 </v>
   <v>       0.73409479       0.13382281       0.47855304 </v>
   <v>       0.85748179       0.26016173       0.47487688 </v>
   <v>       0.73137526       0.25710014       0.48319391 </v>
   <v>       0.86010577       0.61333422       0.46769774 </v>
   <v>       0.73799496       0.48769540       0.48962123 </v>
   <v>       0.38187994       0.26155035       0.48951209 </v>
   <v>       0.86415051       0.20552854       0.39030097 </v>
   <v>       0.90668450       0.16507070       0.38982462 </v>
   <v>       0.86229653       0.67305827       0.39240036 </v>
   <v>       0.90345224       0.75588399       0.39285371 </v>
   <v>       0.32246502       0.12923757       0.40654172 </v>
   <v>       0.23964470       0.08655681       0.40839824 </v>
   <v>       0.58534089       0.48057950       0.41234501 </v>
   <v>       0.66482411       0.54033051       0.41174342 </v>
   <v>       0.03319936       0.96056822       0.50175977 </v>
   <v>       0.03458246       0.08591672       0.49258843 </v>
   <v>       0.73480431       0.61068454       0.49595875 </v>
   <v>       0.38433884       0.13774903       0.48894625 </v>
   <v>       0.50756333       0.26355396       0.49231564 </v>
   <v>       0.88951371       0.08282442       0.37267804 </v>
   <v>       0.93081395       0.04119485       0.37792569 </v>
   <v>       0.88815632       0.82008098       0.37879499 </v>
   <v>       0.93005244       0.90284643       0.38425016 </v>
   <v>       0.17612518       0.10236705       0.38800079 </v>
   <v>       0.09330575       0.06104600       0.39193668 </v>
   <v>       0.87230810       0.40753193       0.38677821 </v>
   <v>       0.85258876       0.32804092       0.38869241 </v>
   <v>       0.82108889       0.43847453       0.37229746 </v>
   <v>       0.55676203       0.39921539       0.39221936 </v>
   <v>       0.51552484       0.12076268       0.40000286 </v>
   <v>       0.45604151       0.14090857       0.40168714 </v>
   <v>       0.59605547       0.17062572       0.38226820 </v>
   <v>       0.83273533       0.08958195       0.56230900 </v>
   <v>       0.78971177       0.12946749       0.56192365 </v>
   <v>       0.91511008       0.11330393       0.58280259 </v>
   <v>       0.83240631       0.75514035       0.57052006 </v>
   <v>       0.79113711       0.67239302       0.56973664 </v>
   <v>       0.91206011       0.81481435       0.58954563 </v>
   <v>       0.23970447       0.16477700       0.57639895 </v>
   <v>       0.32248623       0.20775822       0.57389001 </v>
   <v>       0.17945701       0.08428374       0.60104245 </v>
   <v>       0.86311328       0.46972334       0.57808034 </v>
   <v>       0.84530250       0.53078897       0.57478624 </v>
   <v>       0.78796989       0.31130995       0.57916316 </v>
   <v>       0.80792703       0.39070972       0.57785692 </v>
   <v>       0.52656530       0.40423339       0.60046214 </v>
   <v>       0.46525895       0.32567061       0.59336890 </v>
   <v>       0.68672948       0.48819651       0.59455324 </v>
   <v>       0.60725149       0.42880370       0.59588048 </v>
   <v>       0.59059449       0.13428938       0.59009119 </v>
   <v>       0.66936637       0.15213097       0.58341125 </v>
   <v>       0.50577414       0.20811166       0.58997499 </v>
   <v>       0.56507290       0.18790148       0.58878629 </v>
   <v>       0.96950294       0.02657441       0.48536779 </v>
   <v>       0.94603575       0.97980292       0.48334317 </v>
   <v>       0.94498630       0.05179851       0.48305315 </v>
   <v>       0.79712184       0.26435613       0.47998368 </v>
   <v>       0.75026983       0.23948134       0.48187300 </v>
   <v>       0.72727690       0.19268693       0.48056704 </v>
   <v>       0.75157406       0.17026618       0.48005945 </v>
   <v>       0.79851178       0.19447909       0.47718888 </v>
   <v>       0.82099053       0.24147568       0.47589756 </v>
   <v>       0.75548471       0.52416133       0.48799799 </v>
   <v>       0.80176723       0.54786215       0.47760700 </v>
   <v>       0.82399132       0.59449615       0.47515935 </v>
   <v>       0.80006827       0.61734628       0.48236314 </v>
   <v>       0.44741569       0.26799724       0.49049133 </v>
   <v>       0.90399212       0.08047824       0.41996000 </v>
   <v>       0.92679167       0.05664428       0.42300472 </v>
   <v>       0.85729700       0.18012581       0.42816681 </v>
   <v>       0.88093506       0.15711773       0.42757171 </v>
   <v>       0.90235234       0.83673601       0.42626581 </v>
   <v>       0.92547169       0.88328011       0.42941284 </v>
   <v>       0.85580384       0.69106376       0.43164115 </v>
   <v>       0.87863383       0.73764080       0.43157520 </v>
   <v>       0.15901509       0.08950388       0.43560690 </v>
   <v>       0.11247807       0.06668262       0.43784526 </v>
   <v>       0.30432205       0.13697564       0.44398801 </v>
   <v>       0.25774985       0.11324250       0.44470606 </v>
   <v>       0.82375908       0.52019345       0.47233810 </v>
   <v>       0.81977714       0.49454033       0.41544660 </v>
   <v>       0.82832426       0.45913609       0.41684730 </v>
   <v>       0.84233161       0.44831456       0.47621348 </v>
   <v>       0.84072415       0.40475100       0.48151146 </v>
   <v>       0.85425707       0.38669055       0.42959453 </v>
   <v>       0.84339842       0.34193289       0.43078989 </v>
   <v>       0.47524391       0.31767219       0.48940229 </v>
   <v>       0.50078945       0.34083499       0.43319943 </v>
   <v>       0.53622625       0.38457798       0.43657701 </v>
   <v>       0.60732180       0.48246715       0.45300477 </v>
   <v>       0.65203349       0.51631717       0.45280767 </v>
   <v>       0.67758034       0.17063082       0.47963197 </v>
   <v>       0.65440730       0.17299217       0.42337999 </v>
   <v>       0.61058875       0.16455461       0.42661647 </v>
   <v>       0.58727467       0.15213476       0.48737724 </v>
   <v>       0.51323089       0.13950545       0.44230486 </v>
   <v>       0.47947800       0.15059528       0.44337662 </v>
   <v>       0.89837539       0.10061587       0.47740488 </v>
   <v>       0.87278484       0.12451974       0.47612774 </v>
   <v>       0.82399701       0.17043096       0.47623809 </v>
   <v>       0.82393900       0.66680990       0.48122938 </v>
   <v>       0.96873021       0.95593115       0.49023058 </v>
   <v>       0.93981525       0.07303250       0.53944379 </v>
   <v>       0.94352336       0.90624421       0.48956777 </v>
   <v>       0.93755691       0.87977990       0.54622594 </v>
   <v>       0.01536089       0.97911291       0.49685135 </v>
   <v>       0.03922162       0.02586264       0.49653987 </v>
   <v>       0.01611458       0.04945402       0.49110677 </v>
   <v>       0.73081926       0.54622305       0.49452304 </v>
   <v>       0.75345388       0.59292198       0.49144376 </v>
   <v>       0.44896526       0.19794290       0.49139776 </v>
   <v>       0.47107167       0.24480984       0.49183138 </v>
   <v>       0.40073199       0.24391571       0.49106162 </v>
   <v>       0.37786197       0.19693732       0.48965023 </v>
   <v>       0.40222751       0.17424309       0.48862455 </v>
   <v>       0.81783871       0.31372975       0.48327988 </v>
   <v>       0.54727152       0.40772721       0.49749403 </v>
   <v>       0.59073796       0.44966955       0.50331786 </v>
   <v>       0.68165919       0.51771637       0.50213466 </v>
   <v>       0.54535612       0.15373842       0.49352736 </v>
   <v>       0.47745991       0.17702145       0.49510395 </v>
   <v>       0.91735256       0.09710467       0.53736660 </v>
   <v>       0.83971215       0.11506484       0.52451964 </v>
   <v>       0.81534243       0.13725734       0.52404526 </v>
   <v>       0.91475435       0.83326731       0.54394280 </v>
   <v>       0.89624144       0.81087404       0.48375785 </v>
   <v>       0.87103343       0.76146344       0.48192192 </v>
   <v>       0.83912013       0.73720317       0.53143174 </v>
   <v>       0.81564026       0.69067835       0.53067428 </v>
   <v>       0.08896631       0.05047432       0.49812261 </v>
   <v>       0.11484892       0.05774281       0.55586605 </v>
   <v>       0.16142625       0.08042764       0.55454389 </v>
   <v>       0.18433846       0.09721402       0.49419112 </v>
   <v>       0.23376181       0.12257312       0.49263365 </v>
   <v>       0.25780906       0.15682506       0.53916475 </v>
   <v>       0.30431911       0.18121874       0.53741423 </v>
   <v>       0.32837359       0.17150061       0.49013376 </v>
   <v>       0.85078994       0.47644893       0.53178010 </v>
   <v>       0.84137897       0.51130307       0.52976198 </v>
   <v>       0.80710382       0.33262905       0.53737708 </v>
   <v>       0.81871193       0.37742798       0.53686834 </v>
   <v>       0.51950778       0.38653950       0.55284368 </v>
   <v>       0.48450389       0.34245962       0.54871225 </v>
   <v>       0.66428506       0.48697658       0.55511464 </v>
   <v>       0.61946656       0.45379242       0.55610902 </v>
   <v>       0.60842357       0.14531133       0.54262925 </v>
   <v>       0.65264411       0.15470007       0.53872491 </v>
   <v>       0.50753214       0.18835635       0.54871435 </v>
   <v>       0.54063324       0.17658609       0.54830140 </v>
   <v>       0.95737515       0.06969259       0.60541530 </v>
   <v>       0.95459782       0.90050336       0.61254861 </v>
   <v>       0.80361327       0.50289296       0.35152119 </v>
   <v>       0.49216778       0.31815123       0.36760490 </v>
   <v>       0.67714375       0.18711762       0.35784583 </v>
   <v>       0.09336050       0.04166375       0.62198562 </v>
  </varray>
 </structure>
</modeling>
