<?xml version="1.0" encoding="ISO-8859-1"?>
<modeling>
 <generator>
  <i name="program" type="string">vasp </i>
  <i name="version" type="string">5.4.4.18Apr17-6-g9f103f2a35  </i>
  <i name="subversion" type="string">(build Jun 07 2020 16:50:00) complex            parallel </i>
  <i name="platform" type="string">LinuxIFC </i>
  <i name="date" type="string">2023 02 15 </i>
  <i name="time" type="string">00:47:15 </i>
 </generator>
 <incar>
  <i type="string" name="SYSTEM">Simulation for cell shape cell volume r</i>
  <i type="int" name="ISTART">     1</i>
  <i type="string" name="PREC">high</i>
  <i type="string" name="ALGO">48</i>
  <i type="int" name="ICHARG">    11</i>
  <i type="int" name="NELM">   200</i>
  <i type="int" name="IBRION">    -1</i>
  <i name="EDIFF">      0.00001000</i>
  <i name="EDIFFG">     -0.01000000</i>
  <i type="int" name="NSW">     0</i>
  <i type="int" name="ISIF">     2</i>
  <i name="ENCUT">    500.00000000</i>
  <i name="POTIM">      0.30000000</i>
  <i type="string" name="LREAL">A</i>
  <i type="int" name="ISMEAR">     0</i>
  <i name="SIGMA">      0.01000000</i>
  <i type="int" name="NWRITE">     0</i>
  <i type="logical" name="LWAVE"> F  </i>
  <i type="logical" name="LCHARG"> F  </i>
  <v type="int" name="KPOINT_BSE">    -1     0     0     0</v>
  <i type="int" name="NELM">   200</i>
  <i type="string" name="GGA">PE</i>
 </incar>
 <structure name="primitive_cell" >
  <crystal>
   <varray name="basis" >
    <v>      30.06997759      -0.01040705       0.00000000 </v>
    <v>     -15.04399451      26.06335813       0.00000000 </v>
    <v>       0.00000000       0.00000000      20.00000000 </v>
   </varray>
   <i name="volume">  15671.36062744 </i>
   <varray name="rec_basis" >
    <v>       0.03326241       0.01919935       0.00000000 </v>
    <v>       0.00001328       0.03837571       0.00000000 </v>
    <v>       0.00000000       0.00000000       0.05000000 </v>
   </varray>
  </crystal>
  <varray name="positions" >
   <v>       0.04245964      -0.49699012      -0.42980891 </v>
   <v>      -0.00859890       0.47518472      -0.42785565 </v>
   <v>       0.06465774      -0.45218578      -0.46364948 </v>
   <v>      -0.02523446       0.43968482      -0.39870805 </v>
   <v>      -0.03974231       0.49051165      -0.46151094 </v>
   <v>       0.03343339      -0.43477844      -0.49471001 </v>
   <v>       0.12129057      -0.42617587      -0.47162571 </v>
   <v>       0.12066904      -0.49823476      -0.47094079 </v>
   <v>      -0.01778342      -0.46402739      -0.49321835 </v>
   <v>       0.14419234      -0.45691385      -0.47822509 </v>
   <v>       0.15204830      -0.37240656      -0.47671795 </v>
   <v>      -0.09613265       0.45868044      -0.46832343 </v>
   <v>       0.05293719      -0.38592056       0.46576351 </v>
   <v>      -0.09702086       0.38622342      -0.46961813 </v>
   <v>       0.13541620      -0.34817586      -0.46731950 </v>
   <v>       0.08630154      -0.37786493       0.43481211 </v>
   <v>       0.19590364      -0.43472675      -0.49622775 </v>
   <v>       0.06448027      -0.35254692       0.49861503 </v>
   <v>      -0.11995044       0.40493713      -0.47434254 </v>
   <v>       0.02166975      -0.38956865       0.43382083 </v>
   <v>       0.20366844      -0.34976140      -0.49530947 </v>
   <v>      -0.12512970       0.48334918      -0.47529455 </v>
   <v>      -0.10618269      -0.47513051      -0.46960554 </v>
   <v>       0.22436832      -0.38166368       0.49291209 </v>
   <v>       0.22567777      -0.46150575       0.49526072 </v>
   <v>       0.23202132      -0.48649439      -0.45337931 </v>
   <v>       0.20164305      -0.29726596      -0.37423381 </v>
   <v>      -0.17186011       0.37620207      -0.49194477 </v>
   <v>      -0.16041893       0.32794017      -0.37316933 </v>
   <v>      -0.14208587       0.28850636      -0.41693210 </v>
   <v>       0.26441429      -0.36422408       0.47748449 </v>
   <v>      -0.17706952       0.45499430      -0.49227183 </v>
   <v>       0.24068839      -0.29405058       0.49588332 </v>
   <v>       0.18791318      -0.25428221      -0.41767588 </v>
   <v>       0.25560818      -0.45235124       0.43721655 </v>
   <v>       0.21938345      -0.25942305      -0.39852671 </v>
   <v>      -0.19926855       0.40203868       0.49787226 </v>
   <v>      -0.17535014       0.29014317      -0.39692171 </v>
   <v>       0.24597256      -0.44091312       0.38998993 </v>
   <v>      -0.20335856       0.31971129       0.49855107 </v>
   <v>       0.25463165      -0.25573121      -0.45402361 </v>
   <v>       0.27242962      -0.49398467      -0.45308039 </v>
   <v>       0.24658827       0.46717078      -0.35963319 </v>
   <v>       0.26858289      -0.28234985       0.43944559 </v>
   <v>      -0.21281393       0.28233029      -0.45146583 </v>
   <v>      -0.19412053       0.26003117      -0.35907704 </v>
   <v>       0.24092094      -0.22951657      -0.36130140 </v>
   <v>      -0.21258450       0.47528678       0.49885703 </v>
   <v>       0.27632519       0.47506336      -0.39695998 </v>
   <v>      -0.23960812       0.37970668       0.48365141 </v>
   <v>       0.29890123      -0.45406989       0.43993108 </v>
   <v>      -0.23210714       0.30539784       0.44272164 </v>
   <v>       0.31067199      -0.46987886       0.49663708 </v>
   <v>      -0.22189478       0.49886857      -0.45067909 </v>
   <v>       0.27101832       0.43822881      -0.41534312 </v>
   <v>       0.30259893      -0.21538920      -0.45403714 </v>
   <v>       0.31431556       0.49543369      -0.37300171 </v>
   <v>      -0.23227274       0.45149762       0.39434851 </v>
   <v>       0.31359441      -0.23907351       0.43685145 </v>
   <v>      -0.24352395       0.46188494       0.44114689 </v>
   <v>      -0.25857304       0.23889097      -0.45065716 </v>
   <v>       0.33414705      -0.20906969       0.49487170 </v>
   <v>      -0.27444429       0.25959209       0.44084434 </v>
   <v>       0.38078349      -0.37590309       0.47814584 </v>
   <v>       0.33483427      -0.22945008       0.38974695 </v>
   <v>       0.36641569      -0.45098344      -0.49439004 </v>
   <v>      -0.26544436      -0.49899566      -0.45073098 </v>
   <v>      -0.24257507      -0.45805013      -0.35833400 </v>
   <v>      -0.29170213       0.22921713       0.49902793 </v>
   <v>       0.39303685      -0.24747658       0.47765488 </v>
   <v>       0.39827908      -0.39838668       0.49376841 </v>
   <v>      -0.28938767       0.45828199       0.44375335 </v>
   <v>      -0.29635206       0.24796475       0.39424917 </v>
   <v>      -0.27287760      -0.46931535      -0.39590737 </v>
   <v>      -0.30329724       0.47282039       0.49985310 </v>
   <v>       0.36490733       0.47933877      -0.46598529 </v>
   <v>       0.39069655      -0.17914620      -0.49635142 </v>
   <v>       0.38910316      -0.47980079      -0.47547584 </v>
   <v>       0.41550149      -0.20744502       0.49305441 </v>
   <v>      -0.27122666      -0.43436999      -0.41567107 </v>
   <v>      -0.36051853       0.25612353       0.48459162 </v>
   <v>      -0.31060177      -0.49215594      -0.37189254 </v>
   <v>      -0.34747637       0.19375676      -0.49162634 </v>
   <v>      -0.36338026       0.37653216       0.48557250 </v>
   <v>       0.45135528      -0.37365013      -0.49516757 </v>
   <v>       0.42004949      -0.12746037      -0.47831682 </v>
   <v>      -0.37838593       0.21583004       0.49883066 </v>
   <v>       0.40208412      -0.10407107      -0.47119469 </v>
   <v>      -0.35979708       0.44775060      -0.48989868 </v>
   <v>       0.46946608      -0.29630957       0.43789215 </v>
   <v>       0.45834862      -0.31740064       0.39067275 </v>
   <v>       0.47810542      -0.31710781       0.49627448 </v>
   <v>       0.47133874      -0.25123596       0.44014917 </v>
   <v>       0.36905065       0.41300391       0.49856675 </v>
   <v>       0.44289294      -0.45666142      -0.47018535 </v>
   <v>       0.46810532      -0.18662128      -0.49485715 </v>
   <v>      -0.34811752       0.12306551      -0.46931940 </v>
   <v>       0.39538427       0.46079169       0.43564676 </v>
   <v>      -0.38567541       0.39449655      -0.49993150 </v>
   <v>      -0.37085139       0.14187052      -0.47472928 </v>
   <v>       0.48686677      -0.22360642       0.49683701 </v>
   <v>       0.47361472      -0.40303338      -0.47690885 </v>
   <v>      -0.49732112      -0.28583012      -0.45216104 </v>
   <v>       0.40292341       0.43513624       0.46657667 </v>
   <v>      -0.48960248      -0.23786022      -0.45225433 </v>
   <v>       0.47372333      -0.10443580      -0.47143295 </v>
   <v>      -0.38854423       0.47085563      -0.47205341 </v>
   <v>       0.49691679      -0.13504043      -0.47625928 </v>
   <v>      -0.36983435      -0.48749492      -0.46755738 </v>
   <v>      -0.43164110       0.18829434      -0.49077923 </v>
   <v>      -0.47946063      -0.18522747      -0.37262264 </v>
   <v>       0.46879058      -0.48729959      -0.46181639 </v>
   <v>      -0.44243516       0.24846787       0.44417134 </v>
   <v>      -0.48503773      -0.38512184      -0.46949487 </v>
   <v>       0.40694039       0.40783043       0.43449314 </v>
   <v>      -0.43864926       0.36370195      -0.48986603 </v>
   <v>       0.45134510       0.46407257      -0.49284315 </v>
   <v>      -0.44595309       0.29075856       0.44239888 </v>
   <v>      -0.43573291       0.31267985       0.39583755 </v>
   <v>      -0.42450958       0.11273925      -0.46757053 </v>
   <v>      -0.45899668      -0.20296538      -0.39595909 </v>
   <v>      -0.45681750       0.21965988       0.49991420 </v>
   <v>      -0.45905367       0.30794857      -0.49932631 </v>
   <v>      -0.45146028      -0.22476188      -0.35819583 </v>
   <v>      -0.45462678       0.13640101      -0.47333452 </v>
   <v>      -0.46221999      -0.11831995      -0.46656481 </v>
   <v>      -0.48657327      -0.46480491      -0.42756455 </v>
   <v>       0.48132974      -0.02582901      -0.42975321 </v>
   <v>      -0.48254109       0.27471092      -0.44916626 </v>
   <v>      -0.49576604      -0.04786468      -0.46328939 </v>
   <v>      -0.48484246       0.22899540      -0.45009490 </v>
   <v>      -0.44231864       0.44086735      -0.46564579 </v>
   <v>      -0.46699538       0.38721703      -0.47262934 </v>
   <v>      -0.42194892      -0.17150471      -0.41401165 </v>
   <v>      -0.49178029       0.17627912      -0.37226257 </v>
   <v>      -0.42492097       0.03462755      -0.49204498 </v>
   <v>      -0.44882790       0.05641484      -0.46083031 </v>
   <v>       0.48031863       0.44185816      -0.49066090 </v>
   <v>      -0.42333715      -0.46923531      -0.39611886 </v>
   <v>      -0.49628402       0.11338550      -0.46853903 </v>
   <v>      -0.38957685      -0.00446009       0.43509927 </v>
   <v>       0.48541948       0.19141230      -0.39573041 </v>
   <v>      -0.44248487      -0.06906147       0.43552600 </v>
   <v>      -0.45883002      -0.48810774      -0.42533976 </v>
   <v>       0.47418392       0.21010088      -0.35763822 </v>
   <v>      -0.49554639       0.02517252      -0.42772342 </v>
   <v>       0.49145583       0.36459837      -0.46689503 </v>
   <v>      -0.44690694      -0.01654520      -0.49382119 </v>
   <v>       0.48526894       0.04168082      -0.39898738 </v>
   <v>      -0.47421243       0.46536279      -0.45881998 </v>
   <v>      -0.39556631      -0.04749057       0.49964945 </v>
   <v>      -0.41731502      -0.03585322       0.46676712 </v>
   <v>       0.45042555       0.15832941      -0.41586161 </v>
  </varray>
 </structure>
 <varray name="primitive_index" >
  <v type="int" >        1 </v>
  <v type="int" >      118 </v>
  <v type="int" >       74 </v>
  <v type="int" >       44 </v>
  <v type="int" >      117 </v>
  <v type="int" >       73 </v>
  <v type="int" >       79 </v>
  <v type="int" >       22 </v>
  <v type="int" >       11 </v>
  <v type="int" >       78 </v>
  <v type="int" >       80 </v>
  <v type="int" >      103 </v>
  <v type="int" >       75 </v>
  <v type="int" >       36 </v>
  <v type="int" >       23 </v>
  <v type="int" >       21 </v>
  <v type="int" >       77 </v>
  <v type="int" >       20 </v>
  <v type="int" >      104 </v>
  <v type="int" >       19 </v>
  <v type="int" >       76 </v>
  <v type="int" >      102 </v>
  <v type="int" >       35 </v>
  <v type="int" >       81 </v>
  <v type="int" >       85 </v>
  <v type="int" >        2 </v>
  <v type="int" >       27 </v>
  <v type="int" >       99 </v>
  <v type="int" >       55 </v>
  <v type="int" >       54 </v>
  <v type="int" >       25 </v>
  <v type="int" >      101 </v>
  <v type="int" >       83 </v>
  <v type="int" >       24 </v>
  <v type="int" >       86 </v>
  <v type="int" >       84 </v>
  <v type="int" >      100 </v>
  <v type="int" >      131 </v>
  <v type="int" >       28 </v>
  <v type="int" >      130 </v>
  <v type="int" >       82 </v>
  <v type="int" >      126 </v>
  <v type="int" >       50 </v>
  <v type="int" >        3 </v>
  <v type="int" >      129 </v>
  <v type="int" >       53 </v>
  <v type="int" >       26 </v>
  <v type="int" >      152 </v>
  <v type="int" >      128 </v>
  <v type="int" >       37 </v>
  <v type="int" >       15 </v>
  <v type="int" >       16 </v>
  <v type="int" >      127 </v>
  <v type="int" >       10 </v>
  <v type="int" >       51 </v>
  <v type="int" >        6 </v>
  <v type="int" >       52 </v>
  <v type="int" >       72 </v>
  <v type="int" >      145 </v>
  <v type="int" >      153 </v>
  <v type="int" >        8 </v>
  <v type="int" >      144 </v>
  <v type="int" >      149 </v>
  <v type="int" >       34 </v>
  <v type="int" >       68 </v>
  <v type="int" >       93 </v>
  <v type="int" >      135 </v>
  <v type="int" >       59 </v>
  <v type="int" >      148 </v>
  <v type="int" >       31 </v>
  <v type="int" >       94 </v>
  <v type="int" >       18 </v>
  <v type="int" >       70 </v>
  <v type="int" >      137 </v>
  <v type="int" >      136 </v>
  <v type="int" >       33 </v>
  <v type="int" >       89 </v>
  <v type="int" >       98 </v>
  <v type="int" >       88 </v>
  <v type="int" >       60 </v>
  <v type="int" >       40 </v>
  <v type="int" >       61 </v>
  <v type="int" >      107 </v>
  <v type="int" >       43 </v>
  <v type="int" >       95 </v>
  <v type="int" >       90 </v>
  <v type="int" >      106 </v>
  <v type="int" >       29 </v>
  <v type="int" >      111 </v>
  <v type="int" >      147 </v>
  <v type="int" >       69 </v>
  <v type="int" >      146 </v>
  <v type="int" >       14 </v>
  <v type="int" >       66 </v>
  <v type="int" >       97 </v>
  <v type="int" >       87 </v>
  <v type="int" >       38 </v>
  <v type="int" >       67 </v>
  <v type="int" >      112 </v>
  <v type="int" >      108 </v>
  <v type="int" >      124 </v>
  <v type="int" >       96 </v>
  <v type="int" >        7 </v>
  <v type="int" >      143 </v>
  <v type="int" >      123 </v>
  <v type="int" >       91 </v>
  <v type="int" >      116 </v>
  <v type="int" >       92 </v>
  <v type="int" >       42 </v>
  <v type="int" >      105 </v>
  <v type="int" >       49 </v>
  <v type="int" >      142 </v>
  <v type="int" >       17 </v>
  <v type="int" >       32 </v>
  <v type="int" >       65 </v>
  <v type="int" >      113 </v>
  <v type="int" >      141 </v>
  <v type="int" >      151 </v>
  <v type="int" >       71 </v>
  <v type="int" >      109 </v>
  <v type="int" >      125 </v>
  <v type="int" >      133 </v>
  <v type="int" >      150 </v>
  <v type="int" >       47 </v>
  <v type="int" >      110 </v>
  <v type="int" >       30 </v>
  <v type="int" >        5 </v>
  <v type="int" >        4 </v>
  <v type="int" >        9 </v>
  <v type="int" >      139 </v>
  <v type="int" >      132 </v>
  <v type="int" >      115 </v>
  <v type="int" >      114 </v>
  <v type="int" >       48 </v>
  <v type="int" >       58 </v>
  <v type="int" >       12 </v>
  <v type="int" >      119 </v>
  <v type="int" >       13 </v>
  <v type="int" >       46 </v>
  <v type="int" >       39 </v>
  <v type="int" >       62 </v>
  <v type="int" >      134 </v>
  <v type="int" >       64 </v>
  <v type="int" >      122 </v>
  <v type="int" >       56 </v>
  <v type="int" >      120 </v>
  <v type="int" >       41 </v>
  <v type="int" >      138 </v>
  <v type="int" >       45 </v>
  <v type="int" >      121 </v>
  <v type="int" >       63 </v>
  <v type="int" >      140 </v>
  <v type="int" >       57 </v>
 </varray>
 <kpoints>
  <generation param="listgenerated">
   <i name="divisions" type="int">      20 </i>
   <v>       0.00000000       0.00000000       0.00000000 </v>
   <v>       0.50000000       0.00000000       0.00000000 </v>
   <v>       0.33333333       0.33333333       0.00000000 </v>
   <v>       0.00000000       0.00000000       0.00000000 </v>
  </generation>
  <varray name="kpointlist" >
   <v>       0.00000000       0.00000000       0.00000000 </v>
   <v>       0.02631579       0.00000000       0.00000000 </v>
   <v>       0.05263158       0.00000000       0.00000000 </v>
   <v>       0.07894737       0.00000000       0.00000000 </v>
   <v>       0.10526316       0.00000000       0.00000000 </v>
   <v>       0.13157895       0.00000000       0.00000000 </v>
   <v>       0.15789474       0.00000000       0.00000000 </v>
   <v>       0.18421053       0.00000000       0.00000000 </v>
   <v>       0.21052632       0.00000000       0.00000000 </v>
   <v>       0.23684211       0.00000000       0.00000000 </v>
   <v>       0.26315789       0.00000000       0.00000000 </v>
   <v>       0.28947368       0.00000000       0.00000000 </v>
   <v>       0.31578947       0.00000000       0.00000000 </v>
   <v>       0.34210526       0.00000000       0.00000000 </v>
   <v>       0.36842105       0.00000000       0.00000000 </v>
   <v>       0.39473684       0.00000000       0.00000000 </v>
   <v>       0.42105263       0.00000000       0.00000000 </v>
   <v>       0.44736842       0.00000000       0.00000000 </v>
   <v>       0.47368421       0.00000000       0.00000000 </v>
   <v>       0.50000000       0.00000000       0.00000000 </v>
   <v>       0.50000000       0.00000000       0.00000000 </v>
   <v>       0.49122807       0.01754386       0.00000000 </v>
   <v>       0.48245614       0.03508772       0.00000000 </v>
   <v>       0.47368421       0.05263158       0.00000000 </v>
   <v>       0.46491228       0.07017544       0.00000000 </v>
   <v>       0.45614035       0.08771930       0.00000000 </v>
   <v>       0.44736842       0.10526316       0.00000000 </v>
   <v>       0.43859649       0.12280702       0.00000000 </v>
   <v>       0.42982456       0.14035088       0.00000000 </v>
   <v>       0.42105263       0.15789474       0.00000000 </v>
   <v>       0.41228070       0.17543860       0.00000000 </v>
   <v>       0.40350877       0.19298246       0.00000000 </v>
   <v>       0.39473684       0.21052632       0.00000000 </v>
   <v>       0.38596491       0.22807018       0.00000000 </v>
   <v>       0.37719298       0.24561404       0.00000000 </v>
   <v>       0.36842105       0.26315789       0.00000000 </v>
   <v>       0.35964912       0.28070175       0.00000000 </v>
   <v>       0.35087719       0.29824561       0.00000000 </v>
   <v>       0.34210526       0.31578947       0.00000000 </v>
   <v>       0.33333333       0.33333333       0.00000000 </v>
   <v>       0.33333333       0.33333333       0.00000000 </v>
   <v>       0.31578947       0.31578947       0.00000000 </v>
   <v>       0.29824561       0.29824561       0.00000000 </v>
   <v>       0.28070175       0.28070175       0.00000000 </v>
   <v>       0.26315789       0.26315789       0.00000000 </v>
   <v>       0.24561404       0.24561404       0.00000000 </v>
   <v>       0.22807018       0.22807018       0.00000000 </v>
   <v>       0.21052632       0.21052632       0.00000000 </v>
   <v>       0.19298246       0.19298246       0.00000000 </v>
   <v>       0.17543860       0.17543860       0.00000000 </v>
   <v>       0.15789474       0.15789474       0.00000000 </v>
   <v>       0.14035088       0.14035088       0.00000000 </v>
   <v>       0.12280702       0.12280702       0.00000000 </v>
   <v>       0.10526316       0.10526316       0.00000000 </v>
   <v>       0.08771930       0.08771930       0.00000000 </v>
   <v>       0.07017544       0.07017544       0.00000000 </v>
   <v>       0.05263158       0.05263158       0.00000000 </v>
   <v>       0.03508772       0.03508772       0.00000000 </v>
   <v>       0.01754386       0.01754386       0.00000000 </v>
   <v>       0.00000000       0.00000000       0.00000000 </v>
  </varray>
  <varray name="weights" >
   <v>       0.01666667 </v>
   <v>       0.01666667 </v>
   <v>       0.01666667 </v>
   <v>       0.01666667 </v>
   <v>       0.01666667 </v>
   <v>       0.01666667 </v>
   <v>       0.01666667 </v>
   <v>       0.01666667 </v>
   <v>       0.01666667 </v>
   <v>       0.01666667 </v>
   <v>       0.01666667 </v>
   <v>       0.01666667 </v>
   <v>       0.01666667 </v>
   <v>       0.01666667 </v>
   <v>       0.01666667 </v>
   <v>       0.01666667 </v>
   <v>       0.01666667 </v>
   <v>       0.01666667 </v>
   <v>       0.01666667 </v>
   <v>       0.01666667 </v>
   <v>       0.01666667 </v>
   <v>       0.01666667 </v>
   <v>       0.01666667 </v>
   <v>       0.01666667 </v>
   <v>       0.01666667 </v>
   <v>       0.01666667 </v>
   <v>       0.01666667 </v>
   <v>       0.01666667 </v>
   <v>       0.01666667 </v>
   <v>       0.01666667 </v>
   <v>       0.01666667 </v>
   <v>       0.01666667 </v>
   <v>       0.01666667 </v>
   <v>       0.01666667 </v>
   <v>       0.01666667 </v>
   <v>       0.01666667 </v>
   <v>       0.01666667 </v>
   <v>       0.01666667 </v>
   <v>       0.01666667 </v>
   <v>       0.01666667 </v>
   <v>       0.01666667 </v>
   <v>       0.01666667 </v>
   <v>       0.01666667 </v>
   <v>       0.01666667 </v>
   <v>       0.01666667 </v>
   <v>       0.01666667 </v>
   <v>       0.01666667 </v>
   <v>       0.01666667 </v>
   <v>       0.01666667 </v>
   <v>       0.01666667 </v>
   <v>       0.01666667 </v>
   <v>       0.01666667 </v>
   <v>       0.01666667 </v>
   <v>       0.01666667 </v>
   <v>       0.01666667 </v>
   <v>       0.01666667 </v>
   <v>       0.01666667 </v>
   <v>       0.01666667 </v>
   <v>       0.01666667 </v>
   <v>       0.01666667 </v>
  </varray>
 </kpoints>
 <parameters>
  <separator name="general" >
   <i type="string" name="SYSTEM">Simulation for cell shape cell volume r</i>
   <i type="logical" name="LCOMPAT"> F  </i>
  </separator>
  <separator name="electronic" >
   <i type="string" name="PREC">high</i>
   <i name="ENMAX">    500.00000000</i>
   <i name="ENAUG">    644.87300000</i>
   <i name="EDIFF">      0.00001000</i>
   <i type="int" name="IALGO">    38</i>
   <i type="int" name="IWAVPR">    10</i>
   <i type="int" name="NBANDS">   320</i>
   <i name="NELECT">    468.00000000</i>
   <i type="int" name="TURBO">     0</i>
   <i type="int" name="IRESTART">     0</i>
   <i type="int" name="NREBOOT">     0</i>
   <i type="int" name="NMIN">     0</i>
   <i name="EREF">      0.00000000</i>
   <separator name="electronic smearing" >
    <i type="int" name="ISMEAR">     0</i>
    <i name="SIGMA">      0.01000000</i>
    <i name="KSPACING">      0.50000000</i>
    <i type="logical" name="KGAMMA"> T  </i>
   </separator>
   <separator name="electronic projectors" >
    <i type="logical" name="LREAL"> T  </i>
    <v name="ROPT">     -0.00040000     -0.00040000     -0.00040000</v>
    <i type="int" name="LMAXPAW">  -100</i>
    <i type="int" name="LMAXMIX">     2</i>
    <i type="logical" name="NLSPLINE"> F  </i>
   </separator>
   <separator name="electronic startup" >
    <i type="int" name="ISTART">     1</i>
    <i type="int" name="ICHARG">    11</i>
    <i type="int" name="INIWAV">     1</i>
   </separator>
   <separator name="electronic spin" >
    <i type="int" name="ISPIN">     1</i>
    <i type="logical" name="LNONCOLLINEAR"> F  </i>
    <v name="MAGMOM">      1.00000000      1.00000000      1.00000000      1.00000000      1.00000000      1.00000000      1.00000000      1.00000000      1.00000000      1.00000000      1.00000000      1.00000000      1.00000000      1.00000000      1.00000000      1.00000000      1.00000000      1.00000000      1.00000000      1.00000000
      1.00000000      1.00000000      1.00000000      1.00000000      1.00000000      1.00000000      1.00000000      1.00000000      1.00000000      1.00000000      1.00000000      1.00000000      1.00000000      1.00000000      1.00000000      1.00000000      1.00000000      1.00000000      1.00000000      1.00000000
      1.00000000      1.00000000      1.00000000      1.00000000      1.00000000      1.00000000      1.00000000      1.00000000      1.00000000      1.00000000      1.00000000      1.00000000      1.00000000      1.00000000      1.00000000      1.00000000      1.00000000      1.00000000      1.00000000      1.00000000
      1.00000000      1.00000000      1.00000000      1.00000000      1.00000000      1.00000000      1.00000000      1.00000000      1.00000000      1.00000000      1.00000000      1.00000000      1.00000000      1.00000000      1.00000000      1.00000000      1.00000000      1.00000000      1.00000000      1.00000000
      1.00000000      1.00000000      1.00000000      1.00000000      1.00000000      1.00000000      1.00000000      1.00000000      1.00000000      1.00000000      1.00000000      1.00000000      1.00000000      1.00000000      1.00000000      1.00000000      1.00000000      1.00000000      1.00000000      1.00000000
      1.00000000      1.00000000      1.00000000      1.00000000      1.00000000      1.00000000      1.00000000      1.00000000      1.00000000      1.00000000      1.00000000      1.00000000      1.00000000      1.00000000      1.00000000      1.00000000      1.00000000      1.00000000      1.00000000      1.00000000
      1.00000000      1.00000000      1.00000000      1.00000000      1.00000000      1.00000000      1.00000000      1.00000000      1.00000000      1.00000000      1.00000000      1.00000000      1.00000000      1.00000000      1.00000000      1.00000000      1.00000000      1.00000000      1.00000000      1.00000000
      1.00000000      1.00000000      1.00000000      1.00000000      1.00000000      1.00000000      1.00000000      1.00000000      1.00000000      1.00000000      1.00000000      1.00000000      1.00000000</v>
    <i name="NUPDOWN">     -1.00000000</i>
    <i type="logical" name="LSORBIT"> F  </i>
    <v name="SAXIS">      0.00000000      0.00000000      1.00000000</v>
    <i type="logical" name="LSPIRAL"> F  </i>
    <v name="QSPIRAL">      0.00000000      0.00000000      0.00000000</v>
    <i type="logical" name="LZEROZ"> F  </i>
   </separator>
   <separator name="electronic exchange-correlation" >
    <i type="logical" name="LASPH"> F  </i>
    <i type="logical" name="LMETAGGA"> F  </i>
   </separator>
   <separator name="electronic convergence" >
    <i type="int" name="NELM">   200</i>
    <i type="int" name="NELMDL">     0</i>
    <i type="int" name="NELMIN">     2</i>
    <i name="ENINI">    500.00000000</i>
    <separator name="electronic convergence detail" >
     <i type="logical" name="LDIAG"> T  </i>
     <i type="logical" name="LSUBROT"> F  </i>
     <i name="WEIMIN">      0.00000000</i>
     <i name="EBREAK">      0.00000001</i>
     <i name="DEPER">      0.30000000</i>
     <i type="int" name="NRMM">     4</i>
     <i name="TIME">      0.40000000</i>
    </separator>
   </separator>
   <separator name="electronic mixer" >
    <i name="AMIX">      0.40000000</i>
    <i name="BMIX">      1.00000000</i>
    <i name="AMIN">      0.10000000</i>
    <i name="AMIX_MAG">      1.60000000</i>
    <i name="BMIX_MAG">      1.00000000</i>
    <separator name="electronic mixer details" >
     <i type="int" name="IMIX">     4</i>
     <i type="logical" name="MIXFIRST"> F  </i>
     <i type="int" name="MAXMIX">   -45</i>
     <i name="WC">    100.00000000</i>
     <i type="int" name="INIMIX">     1</i>
     <i type="int" name="MIXPRE">     1</i>
     <i type="int" name="MREMOVE">     5</i>
    </separator>
   </separator>
   <separator name="electronic dipolcorrection" >
    <i type="logical" name="LDIPOL"> F  </i>
    <i type="logical" name="LMONO"> F  </i>
    <i type="int" name="IDIPOL">     0</i>
    <i name="EPSILON">      1.00000000</i>
    <v name="DIPOL">   -100.00000000   -100.00000000   -100.00000000</v>
    <i name="EFIELD">      0.00000000</i>
   </separator>
  </separator>
  <separator name="grids" >
   <i type="int" name="NGX">   224</i>
   <i type="int" name="NGY">   224</i>
   <i type="int" name="NGZ">   150</i>
   <i type="int" name="NGXF">   336</i>
   <i type="int" name="NGYF">   336</i>
   <i type="int" name="NGZF">   224</i>
   <i type="logical" name="ADDGRID"> F  </i>
  </separator>
  <separator name="ionic" >
   <i type="int" name="NSW">     0</i>
   <i type="int" name="IBRION">    -1</i>
   <i type="int" name="MDALGO">     0</i>
   <i type="int" name="ISIF">     2</i>
   <i name="PSTRESS">      0.00000000</i>
   <i name="EDIFFG">     -0.01000000</i>
   <i type="int" name="NFREE">     0</i>
   <i name="POTIM">      0.30000000</i>
   <i name="SMASS">     -3.00000000</i>
   <i name="SCALEE">      1.00000000</i>
  </separator>
  <separator name="ionic md" >
   <i name="TEBEG">      0.00010000</i>
   <i name="TEEND">      0.00010000</i>
   <i type="int" name="NBLOCK">     1</i>
   <i type="int" name="KBLOCK">     1</i>
   <i type="int" name="NPACO">   256</i>
   <i name="APACO">     16.00000000</i>
  </separator>
  <separator name="symmetry" >
   <i type="int" name="ISYM">     2</i>
   <i name="SYMPREC">      0.00001000</i>
  </separator>
  <separator name="dos" >
   <i type="int" name="LORBIT">     0</i>
   <v name="RWIGS">     -1.00000000     -1.00000000     -1.00000000</v>
   <i type="int" name="NEDOS">   301</i>
   <i name="EMIN">     10.00000000</i>
   <i name="EMAX">    -10.00000000</i>
   <i name="EFERMI">      0.00000000</i>
  </separator>
  <separator name="writing" >
   <i type="int" name="NWRITE">     0</i>
   <i type="logical" name="LWAVE"> F  </i>
   <i type="logical" name="LDOWNSAMPLE"> F  </i>
   <i type="logical" name="LCHARG"> F  </i>
   <i type="logical" name="LPARD"> F  </i>
   <i type="logical" name="LVTOT"> F  </i>
   <i type="logical" name="LVHAR"> F  </i>
   <i type="logical" name="LELF"> F  </i>
   <i type="logical" name="LOPTICS"> F  </i>
   <v name="STM">      0.00000000      0.00000000      0.00000000      0.00000000      0.00000000      0.00000000      0.00000000</v>
  </separator>
  <separator name="performance" >
   <i type="int" name="NPAR">    16</i>
   <i type="int" name="NSIM">     4</i>
   <i type="int" name="NBLK">    -1</i>
   <i type="logical" name="LPLANE"> T  </i>
   <i type="logical" name="LSCALAPACK"> T  </i>
   <i type="logical" name="LSCAAWARE"> F  </i>
   <i type="logical" name="LSCALU"> F  </i>
   <i type="logical" name="LASYNC"> F  </i>
   <i type="logical" name="LORBITALREAL"> F  </i>
  </separator>
  <separator name="miscellaneous" >
   <i type="int" name="IDIOT">     3</i>
   <i type="int" name="ISPECIAL">     0</i>
   <i type="logical" name="LMUSIC"> F  </i>
   <v name="POMASS">     14.00100000      1.00000000     12.01100000</v>
   <v name="DARWINR">      0.00000000      0.00000000      0.00000000</v>
   <v name="DARWINV">      1.00000000      1.00000000      1.00000000</v>
   <i type="logical" name="LCORR"> T  </i>
  </separator>
  <i type="logical" name="GGA_COMPAT"> T  </i>
  <i type="logical" name="LBERRY"> F  </i>
  <i type="int" name="ICORELEVEL">     0</i>
  <i type="logical" name="LDAU"> F  </i>
  <i type="int" name="I_CONSTRAINED_M">     0</i>
  <separator name="electronic exchange-correlation" >
   <i type="string" name="GGA">PE</i>
   <i type="int" name="VOSKOWN">     0</i>
   <i type="logical" name="LHFCALC"> F  </i>
   <i type="string" name="PRECFOCK"></i>
   <i type="logical" name="LSYMGRAD"> F  </i>
   <i type="logical" name="LHFONE"> F  </i>
   <i type="logical" name="LRHFCALC"> F  </i>
   <i type="logical" name="LTHOMAS"> F  </i>
   <i type="logical" name="LMODELHF"> F  </i>
   <i name="ENCUT4O">     -1.00000000</i>
   <i type="int" name="EXXOEP">     0</i>
   <i type="int" name="FOURORBIT">     0</i>
   <i name="AEXX">      0.00000000</i>
   <i name="HFALPHA">      0.00000000</i>
   <i name="MCALPHA">      0.00000000</i>
   <i name="ALDAX">      1.00000000</i>
   <i name="AGGAX">      1.00000000</i>
   <i name="ALDAC">      1.00000000</i>
   <i name="AGGAC">      1.00000000</i>
   <i type="int" name="NKREDX">     1</i>
   <i type="int" name="NKREDY">     1</i>
   <i type="int" name="NKREDZ">     1</i>
   <i type="logical" name="SHIFTRED"> F  </i>
   <i type="logical" name="ODDONLY"> F  </i>
   <i type="logical" name="EVENONLY"> F  </i>
   <i type="int" name="LMAXFOCK">     0</i>
   <i type="int" name="NMAXFOCKAE">     0</i>
   <i type="logical" name="LFOCKAEDFT"> F  </i>
   <i name="HFSCREEN">      0.00000000</i>
   <i name="HFSCREENC">      0.00000000</i>
   <i type="int" name="NBANDSGWLOW">     0</i>
  </separator>
  <separator name="vdW DFT" >
   <i type="logical" name="LUSE_VDW"> F  </i>
   <i name="Zab_VDW">     -0.84910000</i>
   <i name="PARAM1">      0.12340000</i>
   <i name="PARAM2">      1.00000000</i>
   <i name="PARAM3">      0.00000000</i>
  </separator>
  <separator name="model GW" >
   <i type="int" name="MODEL_GW">     0</i>
   <i name="MODEL_EPS0">     61.45631619</i>
   <i name="MODEL_ALPHA">      1.00000000</i>
  </separator>
  <separator name="linear response parameters" >
   <i type="logical" name="LEPSILON"> F  </i>
   <i type="logical" name="LRPA"> F  </i>
   <i type="logical" name="LNABLA"> F  </i>
   <i type="logical" name="LVEL"> F  </i>
   <i type="int" name="KINTER">     0</i>
   <i name="CSHIFT">      0.10000000</i>
   <i name="OMEGAMAX">     -1.00000000</i>
   <i name="DEG_THRESHOLD">      0.00200000</i>
   <i name="RTIME">     -0.10000000</i>
   <i name="WPLASMAI">      0.00000000</i>
   <v name="DFIELD">      0.00000000      0.00000000      0.00000000</v>
   <v name="WPLASMA">      0.00000000      0.00000000      0.00000000      0.00000000      0.00000000      0.00000000      0.00000000      0.00000000      0.00000000</v>
  </separator>
  <separator name="orbital magnetization" >
   <i type="logical" name="NUCIND"> F  </i>
   <v name="MAGPOS">      0.00000000      0.00000000      0.00000000</v>
   <i type="logical" name="LNICSALL"> T  </i>
   <i type="logical" name="ORBITALMAG"> F  </i>
   <i type="logical" name="LMAGBLOCH"> F  </i>
   <i type="logical" name="LCHIMAG"> F  </i>
   <i type="logical" name="LGAUGE"> T  </i>
   <i type="int" name="MAGATOM">     0</i>
   <v name="MAGDIPOL">      0.00000000      0.00000000      0.00000000</v>
   <v name="AVECCONST">      0.00000000      0.00000000      0.00000000</v>
  </separator>
  <separator name="response functions" >
   <i type="logical" name="LADDER"> F  </i>
   <i type="logical" name="LRPAFORCE"> F  </i>
   <i type="logical" name="LFXC"> F  </i>
   <i type="logical" name="LHARTREE"> T  </i>
   <i type="int" name="IBSE">     0</i>
   <v type="int" name="KPOINT">    -1     0     0     0</v>
   <i type="logical" name="LTCTE"> F  </i>
   <i type="logical" name="LTETE"> F  </i>
   <i type="logical" name="LTRIPLET"> F  </i>
   <i type="logical" name="LFXCEPS"> F  </i>
   <i type="logical" name="LFXHEG"> F  </i>
   <i type="int" name="NATURALO">     2</i>
   <i type="logical" name="L2ORDER"> F  </i>
   <i type="logical" name="LMP2LT"> F  </i>
   <i type="logical" name="LUSEW"> F  </i>
   <i name="ENCUTGW">     -2.00000000</i>
   <i name="ENCUTGWSOFT">     -2.00000000</i>
   <i name="ENCUTLF">     -1.00000000</i>
   <i type="int" name="LMAXMP2">    -1</i>
   <i name="SCISSOR">      0.00000000</i>
   <i type="int" name="NOMEGA">     0</i>
   <i type="int" name="NOMEGAR">     0</i>
   <i type="int" name="NBANDSGW">    -1</i>
   <i type="int" name="NBANDSO">    -1</i>
   <i type="int" name="NBANDSV">    -1</i>
   <i type="int" name="NELM">   200</i>
   <i type="int" name="NELMHF">     1</i>
   <i type="int" name="DIM">     3</i>
   <i type="int" name="ANTIRES">     0</i>
   <i name="OMEGAMAX">    -30.00000000</i>
   <i name="OMEGAMIN">    -30.00000000</i>
   <i name="OMEGATL">   -200.00000000</i>
   <i type="int" name="OMEGAGRID">   140</i>
   <i name="CSHIFT">     -0.10000000</i>
   <i type="logical" name="SELFENERGY"> F  </i>
   <i type="logical" name="LSPECTRAL"> F  </i>
   <i type="logical" name="LSPECTRALGW"> F  </i>
   <i type="logical" name="LSINGLES"> F  </i>
   <i type="logical" name="LFERMIGW"> F  </i>
   <i type="logical" name="ODDONLYGW"> F  </i>
   <i type="logical" name="EVENONLYGW"> F  </i>
   <i type="int" name="NKREDLFX">     1</i>
   <i type="int" name="NKREDLFY">     1</i>
   <i type="int" name="NKREDLFZ">     1</i>
   <i type="int" name="MAXMEM">  2800</i>
   <i type="int" name="TELESCOPE">     0</i>
   <i type="int" name="TAUPAR">     1</i>
   <i type="int" name="OMEGAPAR">    -1</i>
   <i name="LAMBDA">      1.00000000</i>
  </separator>
  <separator name="External order field" >
   <i name="OFIELD_KAPPA">      0.00000000</i>
   <v name="OFIELD_K">      0.00000000      0.00000000      0.00000000</v>
   <i name="OFIELD_Q6_NEAR">      0.00000000</i>
   <i name="OFIELD_Q6_FAR">      0.00000000</i>
   <i name="OFIELD_A">      0.00000000</i>
  </separator>
  <separator name="solvation model" >
   <i type="logical" name="LSOL"> F  </i>
  </separator>
 </parameters>
 <atominfo>
  <atoms>     153 </atoms>
  <types>       3 </types>
  <array name="atoms" >
   <dimension dim="1">ion</dimension>
   <field type="string">element</field>
   <field type="int">atomtype</field>
   <set>
    <rc><c>N </c><c>   1</c></rc>
    <rc><c>N </c><c>   1</c></rc>
    <rc><c>N </c><c>   1</c></rc>
    <rc><c>N </c><c>   1</c></rc>
    <rc><c>N </c><c>   1</c></rc>
    <rc><c>N </c><c>   1</c></rc>
    <rc><c>N </c><c>   1</c></rc>
    <rc><c>N </c><c>   1</c></rc>
    <rc><c>N </c><c>   1</c></rc>
    <rc><c>N </c><c>   1</c></rc>
    <rc><c>N </c><c>   1</c></rc>
    <rc><c>N </c><c>   1</c></rc>
    <rc><c>N </c><c>   1</c></rc>
    <rc><c>N </c><c>   1</c></rc>
    <rc><c>N </c><c>   1</c></rc>
    <rc><c>N </c><c>   1</c></rc>
    <rc><c>N </c><c>   1</c></rc>
    <rc><c>N </c><c>   1</c></rc>
    <rc><c>H </c><c>   2</c></rc>
    <rc><c>H </c><c>   2</c></rc>
    <rc><c>H </c><c>   2</c></rc>
    <rc><c>H </c><c>   2</c></rc>
    <rc><c>H </c><c>   2</c></rc>
    <rc><c>H </c><c>   2</c></rc>
    <rc><c>H </c><c>   2</c></rc>
    <rc><c>H </c><c>   2</c></rc>
    <rc><c>H </c><c>   2</c></rc>
    <rc><c>H </c><c>   2</c></rc>
    <rc><c>H </c><c>   2</c></rc>
    <rc><c>H </c><c>   2</c></rc>
    <rc><c>H </c><c>   2</c></rc>
    <rc><c>H </c><c>   2</c></rc>
    <rc><c>H </c><c>   2</c></rc>
    <rc><c>H </c><c>   2</c></rc>
    <rc><c>H </c><c>   2</c></rc>
    <rc><c>H </c><c>   2</c></rc>
    <rc><c>H </c><c>   2</c></rc>
    <rc><c>H </c><c>   2</c></rc>
    <rc><c>H </c><c>   2</c></rc>
    <rc><c>H </c><c>   2</c></rc>
    <rc><c>H </c><c>   2</c></rc>
    <rc><c>H </c><c>   2</c></rc>
    <rc><c>H </c><c>   2</c></rc>
    <rc><c>H </c><c>   2</c></rc>
    <rc><c>H </c><c>   2</c></rc>
    <rc><c>H </c><c>   2</c></rc>
    <rc><c>H </c><c>   2</c></rc>
    <rc><c>H </c><c>   2</c></rc>
    <rc><c>H </c><c>   2</c></rc>
    <rc><c>H </c><c>   2</c></rc>
    <rc><c>H </c><c>   2</c></rc>
    <rc><c>H </c><c>   2</c></rc>
    <rc><c>H </c><c>   2</c></rc>
    <rc><c>H </c><c>   2</c></rc>
    <rc><c>H </c><c>   2</c></rc>
    <rc><c>H </c><c>   2</c></rc>
    <rc><c>H </c><c>   2</c></rc>
    <rc><c>H </c><c>   2</c></rc>
    <rc><c>H </c><c>   2</c></rc>
    <rc><c>H </c><c>   2</c></rc>
    <rc><c>H </c><c>   2</c></rc>
    <rc><c>H </c><c>   2</c></rc>
    <rc><c>H </c><c>   2</c></rc>
    <rc><c>H </c><c>   2</c></rc>
    <rc><c>H </c><c>   2</c></rc>
    <rc><c>H </c><c>   2</c></rc>
    <rc><c>H </c><c>   2</c></rc>
    <rc><c>H </c><c>   2</c></rc>
    <rc><c>H </c><c>   2</c></rc>
    <rc><c>H </c><c>   2</c></rc>
    <rc><c>H </c><c>   2</c></rc>
    <rc><c>H </c><c>   2</c></rc>
    <rc><c>C </c><c>   3</c></rc>
    <rc><c>C </c><c>   3</c></rc>
    <rc><c>C </c><c>   3</c></rc>
    <rc><c>C </c><c>   3</c></rc>
    <rc><c>C </c><c>   3</c></rc>
    <rc><c>C </c><c>   3</c></rc>
    <rc><c>C </c><c>   3</c></rc>
    <rc><c>C </c><c>   3</c></rc>
    <rc><c>C </c><c>   3</c></rc>
    <rc><c>C </c><c>   3</c></rc>
    <rc><c>C </c><c>   3</c></rc>
    <rc><c>C </c><c>   3</c></rc>
    <rc><c>C </c><c>   3</c></rc>
    <rc><c>C </c><c>   3</c></rc>
    <rc><c>C </c><c>   3</c></rc>
    <rc><c>C </c><c>   3</c></rc>
    <rc><c>C </c><c>   3</c></rc>
    <rc><c>C </c><c>   3</c></rc>
    <rc><c>C </c><c>   3</c></rc>
    <rc><c>C </c><c>   3</c></rc>
    <rc><c>C </c><c>   3</c></rc>
    <rc><c>C </c><c>   3</c></rc>
    <rc><c>C </c><c>   3</c></rc>
    <rc><c>C </c><c>   3</c></rc>
    <rc><c>C </c><c>   3</c></rc>
    <rc><c>C </c><c>   3</c></rc>
    <rc><c>C </c><c>   3</c></rc>
    <rc><c>C </c><c>   3</c></rc>
    <rc><c>C </c><c>   3</c></rc>
    <rc><c>C </c><c>   3</c></rc>
    <rc><c>C </c><c>   3</c></rc>
    <rc><c>C </c><c>   3</c></rc>
    <rc><c>C </c><c>   3</c></rc>
    <rc><c>C </c><c>   3</c></rc>
    <rc><c>C </c><c>   3</c></rc>
    <rc><c>C </c><c>   3</c></rc>
    <rc><c>C </c><c>   3</c></rc>
    <rc><c>C </c><c>   3</c></rc>
    <rc><c>C </c><c>   3</c></rc>
    <rc><c>C </c><c>   3</c></rc>
    <rc><c>C </c><c>   3</c></rc>
    <rc><c>C </c><c>   3</c></rc>
    <rc><c>C </c><c>   3</c></rc>
    <rc><c>C </c><c>   3</c></rc>
    <rc><c>C </c><c>   3</c></rc>
    <rc><c>C </c><c>   3</c></rc>
    <rc><c>C </c><c>   3</c></rc>
    <rc><c>C </c><c>   3</c></rc>
    <rc><c>C </c><c>   3</c></rc>
    <rc><c>C </c><c>   3</c></rc>
    <rc><c>C </c><c>   3</c></rc>
    <rc><c>C </c><c>   3</c></rc>
    <rc><c>C </c><c>   3</c></rc>
    <rc><c>C </c><c>   3</c></rc>
    <rc><c>C </c><c>   3</c></rc>
    <rc><c>C </c><c>   3</c></rc>
    <rc><c>C </c><c>   3</c></rc>
    <rc><c>C </c><c>   3</c></rc>
    <rc><c>C </c><c>   3</c></rc>
    <rc><c>C </c><c>   3</c></rc>
    <rc><c>C </c><c>   3</c></rc>
    <rc><c>C </c><c>   3</c></rc>
    <rc><c>C </c><c>   3</c></rc>
    <rc><c>C </c><c>   3</c></rc>
    <rc><c>C </c><c>   3</c></rc>
    <rc><c>C </c><c>   3</c></rc>
    <rc><c>C </c><c>   3</c></rc>
    <rc><c>C </c><c>   3</c></rc>
    <rc><c>C </c><c>   3</c></rc>
    <rc><c>C </c><c>   3</c></rc>
    <rc><c>C </c><c>   3</c></rc>
    <rc><c>C </c><c>   3</c></rc>
    <rc><c>C </c><c>   3</c></rc>
    <rc><c>C </c><c>   3</c></rc>
    <rc><c>C </c><c>   3</c></rc>
    <rc><c>C </c><c>   3</c></rc>
    <rc><c>C </c><c>   3</c></rc>
    <rc><c>C </c><c>   3</c></rc>
    <rc><c>C </c><c>   3</c></rc>
    <rc><c>C </c><c>   3</c></rc>
    <rc><c>C </c><c>   3</c></rc>
   </set>
  </array>
  <array name="atomtypes" >
   <dimension dim="1">type</dimension>
   <field type="int">atomspertype</field>
   <field type="string">element</field>
   <field>mass</field>
   <field>valence</field>
   <field type="string">pseudopotential</field>
   <set>
    <rc><c>  18</c><c>N </c><c>     14.00100000</c><c>      5.00000000</c><c>  PAW_PBE N 08Apr2002                   </c></rc>
    <rc><c>  54</c><c>H </c><c>      1.00000000</c><c>      1.00000000</c><c>  PAW_PBE H 15Jun2001                   </c></rc>
    <rc><c>  81</c><c>C </c><c>     12.01100000</c><c>      4.00000000</c><c>  PAW_PBE C 08Apr2002                   </c></rc>
   </set>
  </array>
 </atominfo>
 <structure name="initialpos" >
  <crystal>
   <varray name="basis" >
    <v>      30.06997759      -0.01040705       0.00000000 </v>
    <v>     -15.04399451      26.06335813       0.00000000 </v>
    <v>       0.00000000       0.00000000      20.00000000 </v>
   </varray>
   <i name="volume">  15671.36062744 </i>
   <varray name="rec_basis" >
    <v>       0.03326241       0.01919935       0.00000000 </v>
    <v>       0.00001328       0.03837571       0.00000000 </v>
    <v>       0.00000000       0.00000000       0.05000000 </v>
   </varray>
  </crystal>
  <varray name="positions" >
   <v>       0.04245964       0.50300988       0.57019109 </v>
   <v>       0.23202132       0.51350561       0.54662069 </v>
   <v>       0.26858289       0.71765015       0.43944559 </v>
   <v>       0.48132974       0.97417099       0.57024679 </v>
   <v>       0.51342673       0.53519509       0.57243545 </v>
   <v>       0.30259893       0.78461080       0.54596286 </v>
   <v>       0.50267888       0.71416988       0.54783896 </v>
   <v>       0.74142696       0.23889097       0.54934284 </v>
   <v>       0.51745891       0.27471092       0.55083374 </v>
   <v>       0.77810522       0.49886857       0.54932091 </v>
   <v>       0.98221658       0.53597261       0.50678165 </v>
   <v>       0.57507903       0.03462755       0.50795502 </v>
   <v>       0.48031863       0.44185816       0.50933910 </v>
   <v>       0.47133874       0.74876404       0.44014917 </v>
   <v>       0.29890123       0.54593011       0.43993108 </v>
   <v>       0.76789286       0.30539784       0.44272164 </v>
   <v>       0.55756484       0.24846787       0.44417134 </v>
   <v>       0.71061233       0.45828199       0.44375335 </v>
   <v>       0.02166975       0.61043135       0.43382083 </v>
   <v>       0.06448027       0.64745308       0.49861503 </v>
   <v>       0.08630154       0.62213507       0.43481211 </v>
   <v>       0.12066904       0.50176524       0.52905921 </v>
   <v>       0.13541620       0.65182414       0.53268050 </v>
   <v>       0.18791318       0.74571779       0.58232412 </v>
   <v>       0.26441429       0.63577592       0.47748449 </v>
   <v>       0.24092094       0.77048343       0.63869860 </v>
   <v>       0.20164305       0.70273404       0.62576619 </v>
   <v>       0.24597256       0.55908688       0.38998993 </v>
   <v>       0.40208412       0.89592893       0.52880531 </v>
   <v>       0.53778001       0.88168005       0.53343519 </v>
   <v>       0.39303685       0.75252342       0.47765488 </v>
   <v>       0.51496227       0.61487816       0.53050513 </v>
   <v>       0.36490733       0.47933877       0.53401471 </v>
   <v>       0.38078349       0.62409691       0.47814584 </v>
   <v>       0.89381731       0.52486949       0.53039446 </v>
   <v>       0.90297914       0.38622342       0.53038187 </v>
   <v>       0.76039188       0.37970668       0.48365141 </v>
   <v>       0.65188248       0.12306551       0.53068060 </v>
   <v>       0.50371598       0.11338550       0.53146097 </v>
   <v>       0.63948147       0.25612353       0.48459162 </v>
   <v>       0.49145583       0.36459837       0.53310497 </v>
   <v>       0.63016565       0.51250508       0.53244262 </v>
   <v>       0.63661974       0.37653216       0.48557250 </v>
   <v>       0.97476554       0.43968482       0.60129195 </v>
   <v>       0.48526894       0.04168082       0.60101262 </v>
   <v>       0.57666285       0.53076469       0.60388114 </v>
   <v>       0.54853972       0.77523812       0.64180417 </v>
   <v>       0.57805108       0.82849529       0.58598835 </v>
   <v>       0.52053937       0.81477253       0.62737736 </v>
   <v>       0.24658827       0.46717078       0.64036681 </v>
   <v>       0.27101832       0.43822881       0.58465688 </v>
   <v>       0.31431556       0.49543369       0.62699829 </v>
   <v>       0.80587947       0.26003117       0.64092296 </v>
   <v>       0.85791413       0.28850636       0.58306790 </v>
   <v>       0.83958107       0.32794017       0.62683067 </v>
   <v>       0.47418392       0.21010088       0.64236178 </v>
   <v>       0.45042555       0.15832941       0.58413839 </v>
   <v>       0.50821971       0.17627912       0.62773743 </v>
   <v>       0.75742493       0.54194987       0.64166600 </v>
   <v>       0.72877334       0.56563001       0.58432893 </v>
   <v>       0.68939823       0.50784406       0.62810746 </v>
   <v>       0.61042315       0.99553991       0.43509927 </v>
   <v>       0.60443369       0.95250943       0.49964945 </v>
   <v>       0.55751513       0.93093853       0.43552600 </v>
   <v>       0.40694039       0.40783043       0.43449314 </v>
   <v>       0.36905065       0.41300391       0.49856675 </v>
   <v>       0.39538427       0.46079169       0.43564676 </v>
   <v>       0.33483427       0.77054992       0.38974695 </v>
   <v>       0.45834862       0.68259936       0.39067275 </v>
   <v>       0.70364794       0.24796475       0.39424917 </v>
   <v>       0.56426709       0.31267985       0.39583755 </v>
   <v>       0.76772726       0.45149762       0.39434851 </v>
   <v>       0.03343339       0.56522156       0.50528999 </v>
   <v>       0.06465774       0.54781422       0.53635052 </v>
   <v>       0.05293719       0.61407944       0.46576351 </v>
   <v>       0.20366844       0.65023860       0.50469053 </v>
   <v>       0.19590364       0.56527325       0.50377225 </v>
   <v>       0.14419234       0.54308615       0.52177491 </v>
   <v>       0.12129057       0.57382413       0.52837429 </v>
   <v>       0.15204830       0.62759344       0.52328205 </v>
   <v>       0.22436832       0.61833632       0.49291209 </v>
   <v>       0.25463165       0.74426879       0.54597639 </v>
   <v>       0.24068839       0.70594942       0.49588332 </v>
   <v>       0.21938345       0.74057695       0.60147329 </v>
   <v>       0.22567777       0.53849425       0.49526072 </v>
   <v>       0.25560818       0.54764876       0.43721655 </v>
   <v>       0.46810532       0.81337872       0.50514285 </v>
   <v>       0.41550149       0.79255498       0.49305441 </v>
   <v>       0.39069655       0.82085380       0.50364858 </v>
   <v>       0.42004949       0.87253963       0.52168318 </v>
   <v>       0.47372333       0.89556420       0.52856705 </v>
   <v>       0.49691679       0.86495957       0.52374072 </v>
   <v>       0.36641569       0.54901656       0.50560996 </v>
   <v>       0.39827908       0.60161332       0.49376841 </v>
   <v>       0.45135528       0.62634987       0.50483243 </v>
   <v>       0.47361472       0.59696662       0.52309115 </v>
   <v>       0.44289294       0.54333858       0.52981465 </v>
   <v>       0.38910316       0.52019921       0.52452416 </v>
   <v>       0.82813989       0.37620207       0.50805523 </v>
   <v>       0.80073145       0.40203868       0.49787226 </v>
   <v>       0.82293048       0.45499430       0.50772817 </v>
   <v>       0.87487030       0.48334918       0.52470545 </v>
   <v>       0.90386735       0.45868044       0.53167657 </v>
   <v>       0.88004956       0.40493713       0.52565746 </v>
   <v>       0.56835890       0.18829434       0.50922077 </v>
   <v>       0.62161407       0.21583004       0.49883066 </v>
   <v>       0.65252363       0.19375676       0.50837366 </v>
   <v>       0.62914861       0.14187052       0.52527072 </v>
   <v>       0.57549042       0.11273925       0.53242947 </v>
   <v>       0.54537322       0.13640101       0.52666548 </v>
   <v>       0.64020292       0.44775060       0.51010132 </v>
   <v>       0.61432459       0.39449655       0.50006850 </v>
   <v>       0.56135074       0.36370195       0.51013397 </v>
   <v>       0.53300462       0.38721703       0.52737066 </v>
   <v>       0.55768136       0.44086735       0.53435421 </v>
   <v>       0.61145577       0.47085563       0.52794659 </v>
   <v>       0.96025769       0.49051165       0.53848906 </v>
   <v>       0.99140110       0.47518472       0.57214435 </v>
   <v>       0.55117210       0.05641484       0.53916969 </v>
   <v>       0.50445361       0.02517252       0.57227658 </v>
   <v>       0.52578757       0.46536279       0.54118002 </v>
   <v>       0.54116998       0.51189226       0.57466024 </v>
   <v>       0.51039752       0.76213978       0.54774567 </v>
   <v>       0.48686677       0.77639358       0.49683701 </v>
   <v>       0.54100332       0.79703462       0.60404091 </v>
   <v>       0.27242962       0.50601533       0.54691961 </v>
   <v>       0.31067199       0.53012114       0.49663708 </v>
   <v>       0.27632519       0.47506336       0.60304002 </v>
   <v>       0.78718607       0.28233029       0.54853417 </v>
   <v>       0.79664144       0.31971129       0.49855107 </v>
   <v>       0.82464986       0.29014317       0.60307829 </v>
   <v>       0.51515754       0.22899540       0.54990510 </v>
   <v>       0.54318250       0.21965988       0.49991420 </v>
   <v>       0.48541948       0.19141230       0.60426959 </v>
   <v>       0.73455564       0.50100434       0.54926902 </v>
   <v>       0.69670276       0.47282039       0.49985310 </v>
   <v>       0.72712240       0.53068465       0.60409263 </v>
   <v>       0.55309306       0.98345480       0.50617881 </v>
   <v>       0.50423396       0.95213532       0.53671061 </v>
   <v>       0.58268498       0.96414678       0.46676712 </v>
   <v>       0.45134510       0.46407257       0.50715685 </v>
   <v>       0.46879058       0.51270041       0.53818361 </v>
   <v>       0.40292341       0.43513624       0.46657667 </v>
   <v>       0.33414705       0.79093031       0.49487170 </v>
   <v>       0.31359441       0.76092649       0.43685145 </v>
   <v>       0.47810542       0.68289219       0.49627448 </v>
   <v>       0.46946608       0.70369043       0.43789215 </v>
   <v>       0.70829787       0.22921713       0.49902793 </v>
   <v>       0.72555571       0.25959209       0.44084434 </v>
   <v>       0.54094633       0.30794857       0.50067369 </v>
   <v>       0.55404691       0.29075856       0.44239888 </v>
   <v>       0.78741550       0.47528678       0.49885703 </v>
   <v>       0.75647605       0.46188494       0.44114689 </v>
  </varray>
 </structure>
 <calculation>
  <scstep>
   <time name="dav">  471.52  476.22</time>
   <time name="total">  471.84  476.55</time>
   <energy>
    <i name="alphaZ">     65.18908626 </i>
    <i name="ewald">  63006.72157513 </i>
    <i name="hartreedc"> -77213.85109500 </i>
    <i name="XCdc">   1624.63529106 </i>
    <i name="pawpsdc">  43180.12357608 </i>
    <i name="pawaedc"> -43261.70965007 </i>
    <i name="eentropy">     -0.00000000 </i>
    <i name="bandstr">  -5826.88232350 </i>
    <i name="atom">  17354.91665917 </i>
    <i name="e_fr_energy">  -1070.85688088 </i>
    <i name="e_wo_entrp">  -1070.85688088 </i>
    <i name="e_0_energy">  -1070.85688088 </i>
   </energy>
  </scstep>
  <scstep>
   <time name="dav">  525.08  530.31</time>
   <time name="total">  525.10  530.32</time>
   <energy>
    <i name="e_fr_energy">  -1071.44013171 </i>
    <i name="e_wo_entrp">  -1071.44013171 </i>
    <i name="e_0_energy">  -1071.44013171 </i>
   </energy>
  </scstep>
  <scstep>
   <time name="dav">  590.17  596.08</time>
   <time name="total">  590.21  596.11</time>
   <energy>
    <i name="e_fr_energy">  -1071.45659125 </i>
    <i name="e_wo_entrp">  -1071.45659125 </i>
    <i name="e_0_energy">  -1071.45659125 </i>
   </energy>
  </scstep>
  <scstep>
   <time name="dav">  521.20  526.28</time>
   <time name="total">  521.21  526.30</time>
   <energy>
    <i name="e_fr_energy">  -1071.45685811 </i>
    <i name="e_wo_entrp">  -1071.45685811 </i>
    <i name="e_0_energy">  -1071.45685811 </i>
   </energy>
  </scstep>
  <scstep>
   <time name="dav">  517.19  523.78</time>
   <time name="total">  517.22  523.81</time>
   <energy>
    <i name="e_fr_energy">  -1071.45687270 </i>
    <i name="e_wo_entrp">  -1071.45687270 </i>
    <i name="e_0_energy">  -1071.45687270 </i>
   </energy>
  </scstep>
  <scstep>
   <time name="dav">  406.16  410.04</time>
   <time name="total">  406.17  410.06</time>
   <energy>
    <i name="alphaZ">     65.18908626 </i>
    <i name="ewald">  63006.72157513 </i>
    <i name="hartreedc"> -77213.85109500 </i>
    <i name="XCdc">   1624.63529106 </i>
    <i name="pawpsdc">  43180.12357608 </i>
    <i name="pawaedc"> -43261.70965007 </i>
    <i name="eentropy">     -0.00000000 </i>
    <i name="bandstr">  -5827.48231557 </i>
    <i name="atom">  17354.91665917 </i>
    <i name="e_fr_energy">  -1071.45687295 </i>
    <i name="e_wo_entrp">  -1071.45687295 </i>
    <i name="e_0_energy">  -1071.45687295 </i>
   </energy>
  </scstep>
  <structure>
   <crystal>
    <varray name="basis" >
     <v>      30.06997759      -0.01040705       0.00000000 </v>
     <v>     -15.04399451      26.06335813       0.00000000 </v>
     <v>       0.00000000       0.00000000      20.00000000 </v>
    </varray>
    <i name="volume">  15671.36062744 </i>
    <varray name="rec_basis" >
     <v>       0.03326241       0.01919935       0.00000000 </v>
     <v>       0.00001328       0.03837571       0.00000000 </v>
     <v>       0.00000000       0.00000000       0.05000000 </v>
    </varray>
   </crystal>
   <varray name="positions" >
    <v>       0.04245964       0.50300988       0.57019109 </v>
    <v>       0.23202132       0.51350561       0.54662069 </v>
    <v>       0.26858289       0.71765015       0.43944559 </v>
    <v>       0.48132974       0.97417099       0.57024679 </v>
    <v>       0.51342673       0.53519509       0.57243545 </v>
    <v>       0.30259893       0.78461080       0.54596286 </v>
    <v>       0.50267888       0.71416988       0.54783896 </v>
    <v>       0.74142696       0.23889097       0.54934284 </v>
    <v>       0.51745891       0.27471092       0.55083374 </v>
    <v>       0.77810522       0.49886857       0.54932091 </v>
    <v>       0.98221658       0.53597261       0.50678165 </v>
    <v>       0.57507903       0.03462755       0.50795502 </v>
    <v>       0.48031863       0.44185816       0.50933910 </v>
    <v>       0.47133874       0.74876404       0.44014917 </v>
    <v>       0.29890123       0.54593011       0.43993108 </v>
    <v>       0.76789286       0.30539784       0.44272164 </v>
    <v>       0.55756484       0.24846787       0.44417134 </v>
    <v>       0.71061233       0.45828199       0.44375335 </v>
    <v>       0.02166975       0.61043135       0.43382083 </v>
    <v>       0.06448027       0.64745308       0.49861503 </v>
    <v>       0.08630154       0.62213507       0.43481211 </v>
    <v>       0.12066904       0.50176524       0.52905921 </v>
    <v>       0.13541620       0.65182414       0.53268050 </v>
    <v>       0.18791318       0.74571779       0.58232412 </v>
    <v>       0.26441429       0.63577592       0.47748449 </v>
    <v>       0.24092094       0.77048343       0.63869860 </v>
    <v>       0.20164305       0.70273404       0.62576619 </v>
    <v>       0.24597256       0.55908688       0.38998993 </v>
    <v>       0.40208412       0.89592893       0.52880531 </v>
    <v>       0.53778001       0.88168005       0.53343519 </v>
    <v>       0.39303685       0.75252342       0.47765488 </v>
    <v>       0.51496227       0.61487816       0.53050513 </v>
    <v>       0.36490733       0.47933877       0.53401471 </v>
    <v>       0.38078349       0.62409691       0.47814584 </v>
    <v>       0.89381731       0.52486949       0.53039446 </v>
    <v>       0.90297914       0.38622342       0.53038187 </v>
    <v>       0.76039188       0.37970668       0.48365141 </v>
    <v>       0.65188248       0.12306551       0.53068060 </v>
    <v>       0.50371598       0.11338550       0.53146097 </v>
    <v>       0.63948147       0.25612353       0.48459162 </v>
    <v>       0.49145583       0.36459837       0.53310497 </v>
    <v>       0.63016565       0.51250508       0.53244262 </v>
    <v>       0.63661974       0.37653216       0.48557250 </v>
    <v>       0.97476554       0.43968482       0.60129195 </v>
    <v>       0.48526894       0.04168082       0.60101262 </v>
    <v>       0.57666285       0.53076469       0.60388114 </v>
    <v>       0.54853972       0.77523812       0.64180417 </v>
    <v>       0.57805108       0.82849529       0.58598835 </v>
    <v>       0.52053937       0.81477253       0.62737736 </v>
    <v>       0.24658827       0.46717078       0.64036681 </v>
    <v>       0.27101832       0.43822881       0.58465688 </v>
    <v>       0.31431556       0.49543369       0.62699829 </v>
    <v>       0.80587947       0.26003117       0.64092296 </v>
    <v>       0.85791413       0.28850636       0.58306790 </v>
    <v>       0.83958107       0.32794017       0.62683067 </v>
    <v>       0.47418392       0.21010088       0.64236178 </v>
    <v>       0.45042555       0.15832941       0.58413839 </v>
    <v>       0.50821971       0.17627912       0.62773743 </v>
    <v>       0.75742493       0.54194987       0.64166600 </v>
    <v>       0.72877334       0.56563001       0.58432893 </v>
    <v>       0.68939823       0.50784406       0.62810746 </v>
    <v>       0.61042315       0.99553991       0.43509927 </v>
    <v>       0.60443369       0.95250943       0.49964945 </v>
    <v>       0.55751513       0.93093853       0.43552600 </v>
    <v>       0.40694039       0.40783043       0.43449314 </v>
    <v>       0.36905065       0.41300391       0.49856675 </v>
    <v>       0.39538427       0.46079169       0.43564676 </v>
    <v>       0.33483427       0.77054992       0.38974695 </v>
    <v>       0.45834862       0.68259936       0.39067275 </v>
    <v>       0.70364794       0.24796475       0.39424917 </v>
    <v>       0.56426709       0.31267985       0.39583755 </v>
    <v>       0.76772726       0.45149762       0.39434851 </v>
    <v>       0.03343339       0.56522156       0.50528999 </v>
    <v>       0.06465774       0.54781422       0.53635052 </v>
    <v>       0.05293719       0.61407944       0.46576351 </v>
    <v>       0.20366844       0.65023860       0.50469053 </v>
    <v>       0.19590364       0.56527325       0.50377225 </v>
    <v>       0.14419234       0.54308615       0.52177491 </v>
    <v>       0.12129057       0.57382413       0.52837429 </v>
    <v>       0.15204830       0.62759344       0.52328205 </v>
    <v>       0.22436832       0.61833632       0.49291209 </v>
    <v>       0.25463165       0.74426879       0.54597639 </v>
    <v>       0.24068839       0.70594942       0.49588332 </v>
    <v>       0.21938345       0.74057695       0.60147329 </v>
    <v>       0.22567777       0.53849425       0.49526072 </v>
    <v>       0.25560818       0.54764876       0.43721655 </v>
    <v>       0.46810532       0.81337872       0.50514285 </v>
    <v>       0.41550149       0.79255498       0.49305441 </v>
    <v>       0.39069655       0.82085380       0.50364858 </v>
    <v>       0.42004949       0.87253963       0.52168318 </v>
    <v>       0.47372333       0.89556420       0.52856705 </v>
    <v>       0.49691679       0.86495957       0.52374072 </v>
    <v>       0.36641569       0.54901656       0.50560996 </v>
    <v>       0.39827908       0.60161332       0.49376841 </v>
    <v>       0.45135528       0.62634987       0.50483243 </v>
    <v>       0.47361472       0.59696662       0.52309115 </v>
    <v>       0.44289294       0.54333858       0.52981465 </v>
    <v>       0.38910316       0.52019921       0.52452416 </v>
    <v>       0.82813989       0.37620207       0.50805523 </v>
    <v>       0.80073145       0.40203868       0.49787226 </v>
    <v>       0.82293048       0.45499430       0.50772817 </v>
    <v>       0.87487030       0.48334918       0.52470545 </v>
    <v>       0.90386735       0.45868044       0.53167657 </v>
    <v>       0.88004956       0.40493713       0.52565746 </v>
    <v>       0.56835890       0.18829434       0.50922077 </v>
    <v>       0.62161407       0.21583004       0.49883066 </v>
    <v>       0.65252363       0.19375676       0.50837366 </v>
    <v>       0.62914861       0.14187052       0.52527072 </v>
    <v>       0.57549042       0.11273925       0.53242947 </v>
    <v>       0.54537322       0.13640101       0.52666548 </v>
    <v>       0.64020292       0.44775060       0.51010132 </v>
    <v>       0.61432459       0.39449655       0.50006850 </v>
    <v>       0.56135074       0.36370195       0.51013397 </v>
    <v>       0.53300462       0.38721703       0.52737066 </v>
    <v>       0.55768136       0.44086735       0.53435421 </v>
    <v>       0.61145577       0.47085563       0.52794659 </v>
    <v>       0.96025769       0.49051165       0.53848906 </v>
    <v>       0.99140110       0.47518472       0.57214435 </v>
    <v>       0.55117210       0.05641484       0.53916969 </v>
    <v>       0.50445361       0.02517252       0.57227658 </v>
    <v>       0.52578757       0.46536279       0.54118002 </v>
    <v>       0.54116998       0.51189226       0.57466024 </v>
    <v>       0.51039752       0.76213978       0.54774567 </v>
    <v>       0.48686677       0.77639358       0.49683701 </v>
    <v>       0.54100332       0.79703462       0.60404091 </v>
    <v>       0.27242962       0.50601533       0.54691961 </v>
    <v>       0.31067199       0.53012114       0.49663708 </v>
    <v>       0.27632519       0.47506336       0.60304002 </v>
    <v>       0.78718607       0.28233029       0.54853417 </v>
    <v>       0.79664144       0.31971129       0.49855107 </v>
    <v>       0.82464986       0.29014317       0.60307829 </v>
    <v>       0.51515754       0.22899540       0.54990510 </v>
    <v>       0.54318250       0.21965988       0.49991420 </v>
    <v>       0.48541948       0.19141230       0.60426959 </v>
    <v>       0.73455564       0.50100434       0.54926902 </v>
    <v>       0.69670276       0.47282039       0.49985310 </v>
    <v>       0.72712240       0.53068465       0.60409263 </v>
    <v>       0.55309306       0.98345480       0.50617881 </v>
    <v>       0.50423396       0.95213532       0.53671061 </v>
    <v>       0.58268498       0.96414678       0.46676712 </v>
    <v>       0.45134510       0.46407257       0.50715685 </v>
    <v>       0.46879058       0.51270041       0.53818361 </v>
    <v>       0.40292341       0.43513624       0.46657667 </v>
    <v>       0.33414705       0.79093031       0.49487170 </v>
    <v>       0.31359441       0.76092649       0.43685145 </v>
    <v>       0.47810542       0.68289219       0.49627448 </v>
    <v>       0.46946608       0.70369043       0.43789215 </v>
    <v>       0.70829787       0.22921713       0.49902793 </v>
    <v>       0.72555571       0.25959209       0.44084434 </v>
    <v>       0.54094633       0.30794857       0.50067369 </v>
    <v>       0.55404691       0.29075856       0.44239888 </v>
    <v>       0.78741550       0.47528678       0.49885703 </v>
    <v>       0.75647605       0.46188494       0.44114689 </v>
   </varray>
  </structure>
  <varray name="forces" >
   <v>      -0.00132113      -0.00019730      -0.00135344 </v>
   <v>      -0.00068427       0.00046041       0.00061669 </v>
   <v>       0.00114734      -0.00045042      -0.00182340 </v>
   <v>       0.00133037       0.00159527      -0.00051627 </v>
   <v>      -0.00194303      -0.00110112      -0.00274909 </v>
   <v>      -0.00042726       0.00287378      -0.00274157 </v>
   <v>       0.00410277      -0.00033607       0.00175603 </v>
   <v>       0.00013369       0.00154820      -0.00128063 </v>
   <v>       0.00195623       0.00100849       0.00102838 </v>
   <v>      -0.00056402      -0.00011394      -0.00179348 </v>
   <v>       0.00178858      -0.00008695       0.00151695 </v>
   <v>      -0.00192245      -0.00044979       0.00126267 </v>
   <v>       0.00381550      -0.00107678       0.00104104 </v>
   <v>      -0.00047568      -0.00020755      -0.00332738 </v>
   <v>      -0.00188525      -0.00025976       0.00007730 </v>
   <v>       0.00161946      -0.00180513      -0.00070748 </v>
   <v>       0.00013574       0.00067057      -0.00205241 </v>
   <v>      -0.00696017       0.00005195      -0.00521929 </v>
   <v>      -0.00094903       0.00141579       0.00022997 </v>
   <v>      -0.00063412       0.00223072       0.00013874 </v>
   <v>       0.00038772       0.00095527      -0.00032652 </v>
   <v>      -0.00018630      -0.00004113      -0.00019434 </v>
   <v>      -0.00181837       0.00037881       0.00128302 </v>
   <v>      -0.00049498       0.00097317       0.00114115 </v>
   <v>       0.00112809       0.00204994       0.00087317 </v>
   <v>       0.00138950       0.00191007       0.00243871 </v>
   <v>      -0.00025612      -0.00050547       0.00132851 </v>
   <v>      -0.00148742      -0.00107397      -0.00018415 </v>
   <v>       0.00166112       0.00083279      -0.00096299 </v>
   <v>       0.00280426      -0.00036361       0.00082156 </v>
   <v>       0.00022062      -0.00303088      -0.00061330 </v>
   <v>      -0.00087175       0.00033662       0.00096619 </v>
   <v>      -0.00133451       0.00092052       0.00050439 </v>
   <v>      -0.00388470       0.00226874      -0.00085533 </v>
   <v>      -0.00089371       0.00068779      -0.00122869 </v>
   <v>       0.00208939      -0.00102678      -0.00007114 </v>
   <v>      -0.00045136      -0.00018005      -0.00191658 </v>
   <v>       0.00310981      -0.00167639       0.00054921 </v>
   <v>       0.00121219      -0.00088195      -0.00018658 </v>
   <v>       0.00089512       0.00142518      -0.00115359 </v>
   <v>      -0.00014778      -0.00054251       0.00158683 </v>
   <v>      -0.00082293       0.00049835       0.00282075 </v>
   <v>       0.00047289      -0.00156846      -0.00221542 </v>
   <v>       0.00045319       0.00163873      -0.00190578 </v>
   <v>       0.00188245       0.00061409       0.00164305 </v>
   <v>      -0.00194914       0.00088655      -0.00066866 </v>
   <v>       0.00012909      -0.00073629      -0.00008977 </v>
   <v>       0.00017097      -0.00202298      -0.00022197 </v>
   <v>       0.00109816      -0.00145815      -0.00014761 </v>
   <v>       0.00044665      -0.00022977       0.00026329 </v>
   <v>       0.00122198      -0.00055743       0.00110603 </v>
   <v>       0.00117886       0.00008754       0.00102353 </v>
   <v>       0.00050322       0.00228857      -0.00064282 </v>
   <v>      -0.00069917       0.00156278       0.00162796 </v>
   <v>      -0.00094236       0.00097598      -0.00121922 </v>
   <v>       0.00017104       0.00100902      -0.00162000 </v>
   <v>       0.00085603       0.00064108       0.00061339 </v>
   <v>       0.00023695       0.00042852      -0.00011072 </v>
   <v>      -0.00091866       0.00128622      -0.00051397 </v>
   <v>      -0.00210382       0.00054777      -0.00114252 </v>
   <v>      -0.00223482      -0.00005854      -0.00009388 </v>
   <v>       0.00330788      -0.00088450       0.00130624 </v>
   <v>       0.00191798      -0.00116436       0.00164834 </v>
   <v>       0.00161227      -0.00113508       0.00089078 </v>
   <v>      -0.00162178      -0.00329850       0.00200928 </v>
   <v>      -0.00148751      -0.00053639       0.00389763 </v>
   <v>      -0.00276781      -0.00178935       0.00009933 </v>
   <v>       0.00077346      -0.00150196       0.00069848 </v>
   <v>      -0.00126807      -0.00107736      -0.00112836 </v>
   <v>       0.00016946       0.00036811       0.00183122 </v>
   <v>       0.00116654       0.00066248      -0.00178956 </v>
   <v>       0.00093522      -0.00132424      -0.00135621 </v>
   <v>      -0.00009855      -0.00085449       0.00073085 </v>
   <v>      -0.00087572      -0.00189600       0.00198314 </v>
   <v>      -0.00142147      -0.00080425       0.00122831 </v>
   <v>      -0.00169066       0.00245368       0.00193724 </v>
   <v>       0.00089662      -0.00228428      -0.00011869 </v>
   <v>      -0.00154765       0.00093694       0.00136270 </v>
   <v>      -0.00161244       0.00003998       0.00098615 </v>
   <v>       0.00036076       0.00102855      -0.00030623 </v>
   <v>      -0.00133702       0.00064868       0.00194497 </v>
   <v>       0.00138613      -0.00031505       0.00176648 </v>
   <v>       0.00101187       0.00131844      -0.00220197 </v>
   <v>      -0.00023155       0.00004339       0.00119561 </v>
   <v>       0.00155491       0.00167634       0.00126175 </v>
   <v>      -0.00116680      -0.00101028       0.00043785 </v>
   <v>      -0.00006338       0.00196637       0.00086045 </v>
   <v>      -0.00192102       0.00133010      -0.00082089 </v>
   <v>      -0.00091019       0.00387273       0.00121116 </v>
   <v>       0.00100850       0.00142664      -0.00147654 </v>
   <v>      -0.00028995      -0.00106037       0.00075591 </v>
   <v>       0.00094714       0.00047554       0.00132748 </v>
   <v>       0.00045781      -0.00353390       0.00134546 </v>
   <v>       0.00035161      -0.00203205      -0.00111142 </v>
   <v>       0.00050009       0.00138120      -0.00251090 </v>
   <v>      -0.00120435      -0.00055534       0.00082809 </v>
   <v>      -0.00129236      -0.00075619       0.00005913 </v>
   <v>      -0.00061158      -0.00306608      -0.00056393 </v>
   <v>      -0.00061997       0.00233125       0.00013753 </v>
   <v>      -0.00194827       0.00127763      -0.00035815 </v>
   <v>       0.00103636       0.00096362       0.00021354 </v>
   <v>       0.00001594       0.00142294      -0.00030279 </v>
   <v>       0.00075183       0.00218291       0.00164904 </v>
   <v>      -0.00016859       0.00311047      -0.00068220 </v>
   <v>       0.00188186      -0.00236522       0.00011938 </v>
   <v>       0.00110279       0.00065813       0.00103298 </v>
   <v>       0.00258896      -0.00006834      -0.00007104 </v>
   <v>      -0.00018346      -0.00025054       0.00113382 </v>
   <v>      -0.00079219      -0.00223265       0.00022432 </v>
   <v>       0.00107313      -0.00028711       0.00070126 </v>
   <v>       0.00025239       0.00027889      -0.00101822 </v>
   <v>       0.00000200       0.00274364      -0.00071582 </v>
   <v>      -0.00160739      -0.00032411      -0.00064318 </v>
   <v>      -0.00061122       0.00060439       0.00081683 </v>
   <v>      -0.00557440      -0.00005561       0.00245156 </v>
   <v>       0.00000843      -0.00012693      -0.00040977 </v>
   <v>       0.00049949      -0.00205420      -0.00077171 </v>
   <v>      -0.00199970      -0.00017254       0.00014024 </v>
   <v>       0.00032713       0.00276278       0.00042305 </v>
   <v>       0.00067683       0.00057985       0.00025381 </v>
   <v>      -0.00214416       0.00069655      -0.00336630 </v>
   <v>       0.00247694      -0.00039121       0.00201009 </v>
   <v>       0.00331080      -0.00225306       0.00187231 </v>
   <v>       0.00147906      -0.00167644      -0.00094692 </v>
   <v>       0.00054861      -0.00014394       0.00118635 </v>
   <v>       0.00109109      -0.00054979      -0.00011462 </v>
   <v>      -0.00070445      -0.00101037      -0.00092311 </v>
   <v>      -0.00028299       0.00053854      -0.00061706 </v>
   <v>       0.00342974      -0.00320362       0.00042655 </v>
   <v>      -0.00122613      -0.00149651      -0.00050824 </v>
   <v>       0.00194532       0.00159742       0.00091864 </v>
   <v>      -0.00080350      -0.00343355       0.00051599 </v>
   <v>       0.00078403       0.00094720       0.00029984 </v>
   <v>      -0.00010003      -0.00119521       0.00106605 </v>
   <v>       0.00096946       0.00105799      -0.00279673 </v>
   <v>      -0.00002783       0.00061604      -0.00225741 </v>
   <v>      -0.00238245      -0.00096181      -0.00263385 </v>
   <v>       0.00236860       0.00119641       0.00051920 </v>
   <v>       0.00014996      -0.00140593       0.00128238 </v>
   <v>       0.00308070      -0.00074871       0.00006139 </v>
   <v>      -0.00105006       0.00069633      -0.00238450 </v>
   <v>      -0.00116388       0.00164564       0.00318424 </v>
   <v>      -0.00203149      -0.00153447       0.00134952 </v>
   <v>       0.00125165      -0.00138281       0.00262005 </v>
   <v>      -0.00074296       0.00152440      -0.00020689 </v>
   <v>      -0.00011143       0.00087594      -0.00129423 </v>
   <v>      -0.00105214      -0.00178493      -0.00304906 </v>
   <v>       0.00092298      -0.00047641      -0.00201593 </v>
   <v>      -0.00099302      -0.00040746      -0.00230144 </v>
   <v>       0.00111975      -0.00085428      -0.00173186 </v>
   <v>       0.00212896      -0.00145178      -0.00071243 </v>
   <v>      -0.00111923      -0.00188287       0.00103099 </v>
   <v>      -0.00325695       0.00210420      -0.00143531 </v>
  </varray>
  <varray name="stress" >
   <v>       0.00307100      -0.00029365       0.00519377 </v>
   <v>      -0.00029365       0.00029951       0.00161719 </v>
   <v>       0.00519377       0.00161719      -0.17999671 </v>
  </varray>
  <energy>
   <i name="e_fr_energy">  -1074.78535955 </i>
   <i name="e_wo_entrp">  -1074.78535955 </i>
   <i name="e_0_energy">     -0.00000000 </i>
  </energy>
  <time name="totalsc"> 3497.38 3535.17</time>
  <eigenvalues>
   <array>
    <dimension dim="1">band</dimension>
    <dimension dim="2">kpoint</dimension>
    <dimension dim="3">spin</dimension>
    <field>eigene</field>
    <field>occ</field>
    <set>
     <set comment="spin 1">
      <set comment="kpoint 1">
       <r>  -24.2499    1.0000 </r>
       <r>  -24.2426    1.0000 </r>
       <r>  -24.2350    1.0000 </r>
       <r>  -24.2333    1.0000 </r>
       <r>  -24.2279    1.0000 </r>
       <r>  -24.2264    1.0000 </r>
       <r>  -24.2115    1.0000 </r>
       <r>  -24.2110    1.0000 </r>
       <r>  -24.2095    1.0000 </r>
       <r>  -22.3935    1.0000 </r>
       <r>  -22.3923    1.0000 </r>
       <r>  -22.3603    1.0000 </r>
       <r>  -22.3409    1.0000 </r>
       <r>  -22.3398    1.0000 </r>
       <r>  -22.3072    1.0000 </r>
       <r>  -22.3060    1.0000 </r>
       <r>  -22.2887    1.0000 </r>
       <r>  -22.2818    1.0000 </r>
       <r>  -21.3702    1.0000 </r>
       <r>  -21.3696    1.0000 </r>
       <r>  -21.3424    1.0000 </r>
       <r>  -21.3416    1.0000 </r>
       <r>  -21.3260    1.0000 </r>
       <r>  -21.2869    1.0000 </r>
       <r>  -20.1250    1.0000 </r>
       <r>  -20.1241    1.0000 </r>
       <r>  -20.0811    1.0000 </r>
       <r>  -20.0667    1.0000 </r>
       <r>  -19.9061    1.0000 </r>
       <r>  -19.7772    1.0000 </r>
       <r>  -19.7768    1.0000 </r>
       <r>  -19.4596    1.0000 </r>
       <r>  -19.4592    1.0000 </r>
       <r>  -18.9929    1.0000 </r>
       <r>  -18.9758    1.0000 </r>
       <r>  -18.9757    1.0000 </r>
       <r>  -18.6341    1.0000 </r>
       <r>  -18.6338    1.0000 </r>
       <r>  -18.3870    1.0000 </r>
       <r>  -18.3860    1.0000 </r>
       <r>  -18.2439    1.0000 </r>
       <r>  -18.1010    1.0000 </r>
       <r>  -18.0994    1.0000 </r>
       <r>  -18.0744    1.0000 </r>
       <r>  -18.0472    1.0000 </r>
       <r>  -17.4896    1.0000 </r>
       <r>  -17.4876    1.0000 </r>
       <r>  -17.4733    1.0000 </r>
       <r>  -17.3345    1.0000 </r>
       <r>  -17.2756    1.0000 </r>
       <r>  -17.2751    1.0000 </r>
       <r>  -17.2054    1.0000 </r>
       <r>  -17.0858    1.0000 </r>
       <r>  -17.0853    1.0000 </r>
       <r>  -16.2815    1.0000 </r>
       <r>  -16.2809    1.0000 </r>
       <r>  -16.2121    1.0000 </r>
       <r>  -16.1791    1.0000 </r>
       <r>  -16.1781    1.0000 </r>
       <r>  -16.0486    1.0000 </r>
       <r>  -16.0468    1.0000 </r>
       <r>  -15.9748    1.0000 </r>
       <r>  -15.9564    1.0000 </r>
       <r>  -15.3791    1.0000 </r>
       <r>  -15.3410    1.0000 </r>
       <r>  -15.3393    1.0000 </r>
       <r>  -15.1988    1.0000 </r>
       <r>  -15.1984    1.0000 </r>
       <r>  -15.1119    1.0000 </r>
       <r>  -15.0949    1.0000 </r>
       <r>  -15.0521    1.0000 </r>
[...]
       <r>   -15.7540     0.0000   126.0000 </r>
       <r>   -15.6600     0.0000   126.0000 </r>
       <r>   -15.5660     0.0000   126.0000 </r>
       <r>   -15.4719     0.0000   126.0000 </r>
       <r>   -15.3779     4.9014   126.4608 </r>
       <r>   -15.2839    42.5418   132.0000 </r>
       <r>   -15.1899    24.1843   134.2738 </r>
       <r>   -15.0959    29.6287   138.7857 </r>
       <r>   -15.0018    42.4098   144.0000 </r>
       <r>   -14.9078     0.0000   144.0000 </r>
       <r>   -14.8138     0.0000   144.0000 </r>
       <r>   -14.7198     6.7440   144.6341 </r>
       <r>   -14.6258    14.4174   146.1557 </r>
       <r>   -14.5318    16.7095   148.0059 </r>
       <r>   -14.4377    46.1045   153.3074 </r>
       <r>   -14.3437     8.9727   154.3445 </r>
       <r>   -14.2497    27.6970   157.2385 </r>
       <r>   -14.1557    11.9357   158.5893 </r>
       <r>   -14.0617    21.2906   161.7052 </r>
       <r>   -13.9676    17.9924   163.6916 </r>
       <r>   -13.8736    42.4576   168.0000 </r>
       <r>   -13.7796     0.0000   168.0000 </r>
       <r>   -13.6856     0.0000   168.0000 </r>
       <r>   -13.5916     0.0000   168.0000 </r>
       <r>   -13.4975     0.0000   168.0000 </r>
       <r>   -13.4035     0.0000   168.0000 </r>
       <r>   -13.3095     0.0000   168.0000 </r>
       <r>   -13.2155     0.0000   168.0000 </r>
       <r>   -13.1215     0.0000   168.0000 </r>
       <r>   -13.0275     0.0000   168.0000 </r>
       <r>   -12.9334    26.1318   170.4569 </r>
       <r>   -12.8394    76.8992   179.2300 </r>
       <r>   -12.7454    44.8073   184.2127 </r>
       <r>   -12.6514    13.4206   186.0000 </r>
       <r>   -12.5574    21.6883   188.0391 </r>
       <r>   -12.4633    41.2117   192.4429 </r>
       <r>   -12.3693    42.5434   198.0000 </r>
       <r>   -12.2753     0.0000   198.0000 </r>
       <r>   -12.1813     0.0000   198.0000 </r>
       <r>   -12.0873     0.0000   198.0000 </r>
       <r>   -11.9933     0.0000   198.0000 </r>
       <r>   -11.8992     0.0000   198.0000 </r>
       <r>   -11.8052     0.0000   198.0000 </r>
       <r>   -11.7112    42.7663   202.0208 </r>
       <r>   -11.6172    60.9601   210.0004 </r>
       <r>   -11.5232    63.8106   216.0000 </r>
       <r>   -11.4291     0.0000   216.0000 </r>
       <r>   -11.3351     0.0000   216.0000 </r>
       <r>   -11.2411    45.2484   220.2542 </r>
       <r>   -11.1471    81.8747   230.0000 </r>
       <r>   -11.0531    40.7048   233.8270 </r>
       <r>   -10.9590     0.0000   236.0000 </r>
       <r>   -10.8650    21.2926   238.0019 </r>
       <r>   -10.7710    42.4015   242.0000 </r>
       <r>   -10.6770    42.9028   246.0337 </r>
       <r>   -10.5830    42.6411   250.0427 </r>
       <r>   -10.4890    48.8300   255.2370 </r>
       <r>   -10.3949    20.8885   257.5328 </r>
       <r>   -10.3009    56.3485   264.0000 </r>
       <r>   -10.2069     0.0000   264.0000 </r>
       <r>   -10.1129    58.2575   269.4773 </r>
       <r>   -10.0189    42.7616   274.0204 </r>
       <r>    -9.9248    66.5822   280.6357 </r>
       <r>    -9.8308     0.0000   282.0000 </r>
       <r>    -9.7368     0.0000   282.0000 </r>
       <r>    -9.6428    89.5271   290.4172 </r>
       <r>    -9.5488    63.4960   299.9698 </r>
       <r>    -9.4547     0.0000   300.0000 </r>
       <r>    -9.3607    35.1121   303.3012 </r>
       <r>    -9.2667   118.7694   317.1665 </r>
       <r>    -9.1727    44.6882   324.2119 </r>
       <r>    -9.0787    37.3942   330.4666 </r>
       <r>    -8.9847    28.6686   335.1975 </r>
       <r>    -8.8906     0.6593   336.0620 </r>
       <r>    -8.7966    87.1237   345.2112 </r>
       <r>    -8.7026    21.2724   348.0000 </r>
       <r>    -8.6086     0.0000   348.0000 </r>
       <r>    -8.5146     0.0000   348.0000 </r>
       <r>    -8.4205     4.1589   348.3910 </r>
       <r>    -8.3265    41.4007   355.8924 </r>
       <r>    -8.2325    52.3798   361.9945 </r>
       <r>    -8.1385    28.2534   364.6563 </r>
       <r>    -8.0445    56.5407   372.0000 </r>
       <r>    -7.9504     0.0004   372.0000 </r>
       <r>    -7.8564    60.7491   377.7116 </r>
       <r>    -7.7624     0.0000   378.0000 </r>
       <r>    -7.6684    24.5090   380.3043 </r>
       <r>    -7.5744    42.1158   385.9597 </r>
       <r>    -7.4804    35.7105   390.0000 </r>
       <r>    -7.3863     0.0000   390.0000 </r>
       <r>    -7.2923     0.0000   390.0000 </r>
       <r>    -7.1983     0.0000   390.0000 </r>
       <r>    -7.1043     0.0000   390.0000 </r>
       <r>    -7.0103     6.9341   390.6519 </r>
       <r>    -6.9162    32.5120   397.0568 </r>
       <r>    -6.8222    32.1594   402.0000 </r>
       <r>    -6.7282    37.9948   405.5722 </r>
       <r>    -6.6342    54.0311   411.0799 </r>
       <r>    -6.5402    33.6323   415.1649 </r>
       <r>    -6.4461     9.8889   418.0001 </r>
       <r>    -6.3521    42.3483   421.9816 </r>
       <r>    -6.2581    42.4018   425.9875 </r>
       <r>    -6.1641     0.3260   426.0306 </r>
       <r>    -6.0701    59.1740   432.0000 </r>
       <r>    -5.9761     0.0000   432.0000 </r>
       <r>    -5.8820     0.0000   432.0000 </r>
       <r>    -5.7880    39.3596   435.7005 </r>
       <r>    -5.6940    17.0218   437.6004 </r>
       <r>    -5.6000    31.3779   440.7173 </r>
       <r>    -5.5060    32.5898   443.9982 </r>
       <r>    -5.4119    75.3064   451.0802 </r>
       <r>    -5.3179    83.8957   461.8878 </r>
       <r>    -5.2239    63.6466   468.0000 </r>
       <r>    -5.1299     0.0000   468.0000 </r>
       <r>    -5.0359     0.0000   468.0000 </r>
       <r>    -4.9419     0.0000   468.0000 </r>
       <r>    -4.8478     0.0000   468.0000 </r>
       <r>    -4.7538     0.0000   468.0000 </r>
       <r>    -4.6598     0.0000   468.0000 </r>
       <r>    -4.5658     0.0000   468.0000 </r>
       <r>    -4.4718     0.0000   468.0000 </r>
       <r>    -4.3777     0.0000   468.0000 </r>
       <r>    -4.2837     0.0000   468.0000 </r>
       <r>    -4.1897     0.0000   468.0000 </r>
       <r>    -4.0957     0.0000   468.0000 </r>
       <r>    -4.0017     0.0000   468.0000 </r>
       <r>    -3.9076     0.0000   468.0000 </r>
       <r>    -3.8136     0.0000   468.0000 </r>
       <r>    -3.7196     0.0000   468.0000 </r>
       <r>    -3.6256     0.0000   468.0000 </r>
       <r>    -3.5316     0.0000   468.0000 </r>
       <r>    -3.4376     0.0000   468.0000 </r>
       <r>    -3.3435     0.0000   468.0000 </r>
       <r>    -3.2495     0.0000   468.0000 </r>
       <r>    -3.1555     0.0000   468.0000 </r>
       <r>    -3.0615     0.0000   468.0000 </r>
       <r>    -2.9675     0.0000   468.0000 </r>
       <r>    -2.8734     0.0000   468.0000 </r>
       <r>    -2.7794     0.0000   468.0000 </r>
       <r>    -2.6854     0.0000   468.0000 </r>
       <r>    -2.5914     0.0000   468.0000 </r>
       <r>    -2.4974     0.0000   468.0000 </r>
       <r>    -2.4033     1.1284   468.1061 </r>
       <r>    -2.3093    53.4017   474.0000 </r>
       <r>    -2.2153     0.0000   474.0000 </r>
       <r>    -2.1213    53.6228   479.0415 </r>
       <r>    -2.0273    31.9094   485.0001 </r>
       <r>    -1.9333     0.0000   486.0000 </r>
       <r>    -1.8392     0.1906   486.0179 </r>
       <r>    -1.7452    36.3847   489.4388 </r>
       <r>    -1.6512    12.4976   493.1750 </r>
       <r>    -1.5572    63.5244   499.9725 </r>
       <r>    -1.4632     0.0000   504.0000 </r>
       <r>    -1.3691     0.0000   504.0000 </r>
       <r>    -1.2751     0.0000   504.0000 </r>
       <r>    -1.1811     0.0000   504.0000 </r>
       <r>    -1.0871    24.3333   506.2878 </r>
       <r>    -0.9931    49.8661   511.3894 </r>
       <r>    -0.8990    14.4804   514.0000 </r>
       <r>    -0.8050     0.0000   514.0000 </r>
       <r>    -0.7110     0.0000   514.0000 </r>
       <r>    -0.6170     0.0000   514.0000 </r>
       <r>    -0.5230    24.7480   516.3268 </r>
       <r>    -0.4290    46.6201   521.8185 </r>
       <r>    -0.3349     0.0000   522.0000 </r>
       <r>    -0.2409    26.5907   524.5000 </r>
       <r>    -0.1469    52.7348   530.1263 </r>
       <r>    -0.0529    38.8917   534.8916 </r>
       <r>     0.0411    42.5060   540.0000 </r>
       <r>     0.1352     0.0000   540.0000 </r>
       <r>     0.2292    22.4959   542.1150 </r>
       <r>     0.3232    36.3803   547.4204 </r>
       <r>     0.4172    23.5961   550.4216 </r>
       <r>     0.5112    47.4574   555.6980 </r>
       <r>     0.6053    45.6593   561.5288 </r>
       <r>     0.6993    77.1556   570.4952 </r>
       <r>     0.7933    68.9523   577.9855 </r>
       <r>     0.8873    85.9154   587.4147 </r>
       <r>     0.9813   105.7880   598.6501 </r>
       <r>     1.0753    91.6922   608.3608 </r>
       <r>     1.1694    83.9049   617.8937 </r>
       <r>     1.2634    98.4332   628.7315 </r>
       <r>     1.3574    79.8966   638.0166 </r>
       <r>     1.4514    11.6113   640.0000 </r>
       <r>     1.5454     0.0000   640.0000 </r>
       <r>     1.6395     0.0000   640.0000 </r>
       <r>     1.7335     0.0000   640.0000 </r>
       <r>     1.8275     0.0000   640.0000 </r>
       <r>     1.9215     0.0000   640.0000 </r>
       <r>     2.0155     0.0000   640.0000 </r>
       <r>     2.1095     0.0000   640.0000 </r>
       <r>     2.2036     0.0000   640.0000 </r>
       <r>     2.2976     0.0000   640.0000 </r>
       <r>     2.3916     0.0000   640.0000 </r>
       <r>     2.4856     0.0000   640.0000 </r>
       <r>     2.5796     0.0000   640.0000 </r>
       <r>     2.6737     0.0000   640.0000 </r>
      </set>
     </set>
    </array>
   </total>
  </dos>
 </calculation>
 <structure name="finalpos" >
  <crystal>
   <varray name="basis" >
    <v>      30.06997759      -0.01040705       0.00000000 </v>
    <v>     -15.04399451      26.06335813       0.00000000 </v>
    <v>       0.00000000       0.00000000      20.00000000 </v>
   </varray>
   <i name="volume">  15671.36062744 </i>
   <varray name="rec_basis" >
    <v>       0.03326241       0.01919935       0.00000000 </v>
    <v>       0.00001328       0.03837571       0.00000000 </v>
    <v>       0.00000000       0.00000000       0.05000000 </v>
   </varray>
  </crystal>
  <varray name="positions" >
   <v>       0.04245964       0.50300988       0.57019109 </v>
   <v>       0.23202132       0.51350561       0.54662069 </v>
   <v>       0.26858289       0.71765015       0.43944559 </v>
   <v>       0.48132974       0.97417099       0.57024679 </v>
   <v>       0.51342673       0.53519509       0.57243545 </v>
   <v>       0.30259893       0.78461080       0.54596286 </v>
   <v>       0.50267888       0.71416988       0.54783896 </v>
   <v>       0.74142696       0.23889097       0.54934284 </v>
   <v>       0.51745891       0.27471092       0.55083374 </v>
   <v>       0.77810522       0.49886857       0.54932091 </v>
   <v>       0.98221658       0.53597261       0.50678165 </v>
   <v>       0.57507903       0.03462755       0.50795502 </v>
   <v>       0.48031863       0.44185816       0.50933910 </v>
   <v>       0.47133874       0.74876404       0.44014917 </v>
   <v>       0.29890123       0.54593011       0.43993108 </v>
   <v>       0.76789286       0.30539784       0.44272164 </v>
   <v>       0.55756484       0.24846787       0.44417134 </v>
   <v>       0.71061233       0.45828199       0.44375335 </v>
   <v>       0.02166975       0.61043135       0.43382083 </v>
   <v>       0.06448027       0.64745308       0.49861503 </v>
   <v>       0.08630154       0.62213507       0.43481211 </v>
   <v>       0.12066904       0.50176524       0.52905921 </v>
   <v>       0.13541620       0.65182414       0.53268050 </v>
   <v>       0.18791318       0.74571779       0.58232412 </v>
   <v>       0.26441429       0.63577592       0.47748449 </v>
   <v>       0.24092094       0.77048343       0.63869860 </v>
   <v>       0.20164305       0.70273404       0.62576619 </v>
   <v>       0.24597256       0.55908688       0.38998993 </v>
   <v>       0.40208412       0.89592893       0.52880531 </v>
   <v>       0.53778001       0.88168005       0.53343519 </v>
   <v>       0.39303685       0.75252342       0.47765488 </v>
   <v>       0.51496227       0.61487816       0.53050513 </v>
   <v>       0.36490733       0.47933877       0.53401471 </v>
   <v>       0.38078349       0.62409691       0.47814584 </v>
   <v>       0.89381731       0.52486949       0.53039446 </v>
   <v>       0.90297914       0.38622342       0.53038187 </v>
   <v>       0.76039188       0.37970668       0.48365141 </v>
   <v>       0.65188248       0.12306551       0.53068060 </v>
   <v>       0.50371598       0.11338550       0.53146097 </v>
   <v>       0.63948147       0.25612353       0.48459162 </v>
   <v>       0.49145583       0.36459837       0.53310497 </v>
   <v>       0.63016565       0.51250508       0.53244262 </v>
   <v>       0.63661974       0.37653216       0.48557250 </v>
   <v>       0.97476554       0.43968482       0.60129195 </v>
   <v>       0.48526894       0.04168082       0.60101262 </v>
   <v>       0.57666285       0.53076469       0.60388114 </v>
   <v>       0.54853972       0.77523812       0.64180417 </v>
   <v>       0.57805108       0.82849529       0.58598835 </v>
   <v>       0.52053937       0.81477253       0.62737736 </v>
   <v>       0.24658827       0.46717078       0.64036681 </v>
   <v>       0.27101832       0.43822881       0.58465688 </v>
   <v>       0.31431556       0.49543369       0.62699829 </v>
   <v>       0.80587947       0.26003117       0.64092296 </v>
   <v>       0.85791413       0.28850636       0.58306790 </v>
   <v>       0.83958107       0.32794017       0.62683067 </v>
   <v>       0.47418392       0.21010088       0.64236178 </v>
   <v>       0.45042555       0.15832941       0.58413839 </v>
   <v>       0.50821971       0.17627912       0.62773743 </v>
   <v>       0.75742493       0.54194987       0.64166600 </v>
   <v>       0.72877334       0.56563001       0.58432893 </v>
   <v>       0.68939823       0.50784406       0.62810746 </v>
   <v>       0.61042315       0.99553991       0.43509927 </v>
   <v>       0.60443369       0.95250943       0.49964945 </v>
   <v>       0.55751513       0.93093853       0.43552600 </v>
   <v>       0.40694039       0.40783043       0.43449314 </v>
   <v>       0.36905065       0.41300391       0.49856675 </v>
   <v>       0.39538427       0.46079169       0.43564676 </v>
   <v>       0.33483427       0.77054992       0.38974695 </v>
   <v>       0.45834862       0.68259936       0.39067275 </v>
   <v>       0.70364794       0.24796475       0.39424917 </v>
   <v>       0.56426709       0.31267985       0.39583755 </v>
   <v>       0.76772726       0.45149762       0.39434851 </v>
   <v>       0.03343339       0.56522156       0.50528999 </v>
   <v>       0.06465774       0.54781422       0.53635052 </v>
   <v>       0.05293719       0.61407944       0.46576351 </v>
   <v>       0.20366844       0.65023860       0.50469053 </v>
   <v>       0.19590364       0.56527325       0.50377225 </v>
   <v>       0.14419234       0.54308615       0.52177491 </v>
   <v>       0.12129057       0.57382413       0.52837429 </v>
   <v>       0.15204830       0.62759344       0.52328205 </v>
   <v>       0.22436832       0.61833632       0.49291209 </v>
   <v>       0.25463165       0.74426879       0.54597639 </v>
   <v>       0.24068839       0.70594942       0.49588332 </v>
   <v>       0.21938345       0.74057695       0.60147329 </v>
   <v>       0.22567777       0.53849425       0.49526072 </v>
   <v>       0.25560818       0.54764876       0.43721655 </v>
   <v>       0.46810532       0.81337872       0.50514285 </v>
   <v>       0.41550149       0.79255498       0.49305441 </v>
   <v>       0.39069655       0.82085380       0.50364858 </v>
   <v>       0.42004949       0.87253963       0.52168318 </v>
   <v>       0.47372333       0.89556420       0.52856705 </v>
   <v>       0.49691679       0.86495957       0.52374072 </v>
   <v>       0.36641569       0.54901656       0.50560996 </v>
   <v>       0.39827908       0.60161332       0.49376841 </v>
   <v>       0.45135528       0.62634987       0.50483243 </v>
   <v>       0.47361472       0.59696662       0.52309115 </v>
   <v>       0.44289294       0.54333858       0.52981465 </v>
   <v>       0.38910316       0.52019921       0.52452416 </v>
   <v>       0.82813989       0.37620207       0.50805523 </v>
   <v>       0.80073145       0.40203868       0.49787226 </v>
   <v>       0.82293048       0.45499430       0.50772817 </v>
   <v>       0.87487030       0.48334918       0.52470545 </v>
   <v>       0.90386735       0.45868044       0.53167657 </v>
   <v>       0.88004956       0.40493713       0.52565746 </v>
   <v>       0.56835890       0.18829434       0.50922077 </v>
   <v>       0.62161407       0.21583004       0.49883066 </v>
   <v>       0.65252363       0.19375676       0.50837366 </v>
   <v>       0.62914861       0.14187052       0.52527072 </v>
   <v>       0.57549042       0.11273925       0.53242947 </v>
   <v>       0.54537322       0.13640101       0.52666548 </v>
   <v>       0.64020292       0.44775060       0.51010132 </v>
   <v>       0.61432459       0.39449655       0.50006850 </v>
   <v>       0.56135074       0.36370195       0.51013397 </v>
   <v>       0.53300462       0.38721703       0.52737066 </v>
   <v>       0.55768136       0.44086735       0.53435421 </v>
   <v>       0.61145577       0.47085563       0.52794659 </v>
   <v>       0.96025769       0.49051165       0.53848906 </v>
   <v>       0.99140110       0.47518472       0.57214435 </v>
   <v>       0.55117210       0.05641484       0.53916969 </v>
   <v>       0.50445361       0.02517252       0.57227658 </v>
   <v>       0.52578757       0.46536279       0.54118002 </v>
   <v>       0.54116998       0.51189226       0.57466024 </v>
   <v>       0.51039752       0.76213978       0.54774567 </v>
   <v>       0.48686677       0.77639358       0.49683701 </v>
   <v>       0.54100332       0.79703462       0.60404091 </v>
   <v>       0.27242962       0.50601533       0.54691961 </v>
   <v>       0.31067199       0.53012114       0.49663708 </v>
   <v>       0.27632519       0.47506336       0.60304002 </v>
   <v>       0.78718607       0.28233029       0.54853417 </v>
   <v>       0.79664144       0.31971129       0.49855107 </v>
   <v>       0.82464986       0.29014317       0.60307829 </v>
   <v>       0.51515754       0.22899540       0.54990510 </v>
   <v>       0.54318250       0.21965988       0.49991420 </v>
   <v>       0.48541948       0.19141230       0.60426959 </v>
   <v>       0.73455564       0.50100434       0.54926902 </v>
   <v>       0.69670276       0.47282039       0.49985310 </v>
   <v>       0.72712240       0.53068465       0.60409263 </v>
   <v>       0.55309306       0.98345480       0.50617881 </v>
   <v>       0.50423396       0.95213532       0.53671061 </v>
   <v>       0.58268498       0.96414678       0.46676712 </v>
   <v>       0.45134510       0.46407257       0.50715685 </v>
   <v>       0.46879058       0.51270041       0.53818361 </v>
   <v>       0.40292341       0.43513624       0.46657667 </v>
   <v>       0.33414705       0.79093031       0.49487170 </v>
   <v>       0.31359441       0.76092649       0.43685145 </v>
   <v>       0.47810542       0.68289219       0.49627448 </v>
   <v>       0.46946608       0.70369043       0.43789215 </v>
   <v>       0.70829787       0.22921713       0.49902793 </v>
   <v>       0.72555571       0.25959209       0.44084434 </v>
   <v>       0.54094633       0.30794857       0.50067369 </v>
   <v>       0.55404691       0.29075856       0.44239888 </v>
   <v>       0.78741550       0.47528678       0.49885703 </v>
   <v>       0.75647605       0.46188494       0.44114689 </v>
  </varray>
 </structure>
</modeling>
