<?xml version="1.0" encoding="ISO-8859-1"?>
<modeling>
 <generator>
  <i name="program" type="string">vasp </i>
  <i name="version" type="string">5.4.4.18Apr17-6-g9f103f2a35  </i>
  <i name="subversion" type="string">(build Jun 07 2020 16:50:00) complex            parallel </i>
  <i name="platform" type="string">LinuxIFC </i>
  <i name="date" type="string">2023 02 12 </i>
  <i name="time" type="string">13:24:49 </i>
 </generator>
 <incar>
  <i type="string" name="SYSTEM">Simulation for cell shape cell volume r</i>
  <i type="int" name="ISTART">     1</i>
  <i type="string" name="PREC">high</i>
  <i type="string" name="ALGO">48</i>
  <i type="int" name="ICHARG">    11</i>
  <i type="int" name="NELM">   200</i>
  <i type="int" name="IBRION">    -1</i>
  <i name="EDIFF">      0.00001000</i>
  <i name="EDIFFG">     -0.01000000</i>
  <i type="int" name="NSW">     0</i>
  <i type="int" name="ISIF">     2</i>
  <i name="ENCUT">    500.00000000</i>
  <i name="POTIM">      0.30000000</i>
  <i type="string" name="LREAL">A</i>
  <i type="int" name="ISMEAR">     0</i>
  <i name="SIGMA">      0.01000000</i>
  <i type="int" name="NWRITE">     0</i>
  <i type="logical" name="LWAVE"> F  </i>
  <i type="logical" name="LCHARG"> F  </i>
  <v type="int" name="KPOINT_BSE">    -1     0     0     0</v>
  <i type="int" name="NELM">   200</i>
  <i type="string" name="GGA">PE</i>
 </incar>
 <structure name="primitive_cell" >
  <crystal>
   <varray name="basis" >
    <v>      14.55772497       0.00169687       0.00000000 </v>
    <v>       7.28033202      12.60651121       0.00000000 </v>
    <v>       0.00000000       0.00000000      20.00000000 </v>
   </varray>
   <i name="volume">   3670.19538433 </i>
   <varray name="rec_basis" >
    <v>       0.06869668      -0.03967272       0.00000000 </v>
    <v>      -0.00000925       0.07932943       0.00000000 </v>
    <v>       0.00000000       0.00000000       0.05000000 </v>
   </varray>
  </crystal>
  <varray name="positions" >
   <v>      -0.26269575      -0.26269575       0.48723701 </v>
   <v>      -0.36952465      -0.21307713       0.48716860 </v>
   <v>      -0.21307713      -0.36952465       0.48716860 </v>
   <v>      -0.42678228      -0.26262942       0.48648212 </v>
   <v>      -0.26262942      -0.42678228       0.48648212 </v>
   <v>      -0.09478559      -0.42864730       0.48727224 </v>
   <v>      -0.42864730      -0.09478559       0.48727224 </v>
   <v>      -0.36947993      -0.36947993       0.48693344 </v>
   <v>      -0.16197010      -0.39511581       0.37023100 </v>
   <v>      -0.39511581      -0.16197010       0.37023100 </v>
   <v>      -0.03920025      -0.45629458      -0.45214315 </v>
   <v>      -0.45629458      -0.03920025      -0.45214315 </v>
   <v>      -0.03771014      -0.45725832       0.42689749 </v>
   <v>      -0.45725832      -0.03771014       0.42689749 </v>
   <v>      -0.08357121      -0.43402945      -0.40530603 </v>
   <v>      -0.43402945      -0.08357121      -0.40530603 </v>
   <v>      -0.08521756      -0.43354455       0.36518315 </v>
   <v>      -0.43354455      -0.08521756       0.36518315 </v>
   <v>      -0.39507764      -0.39507764       0.37028421 </v>
   <v>      -0.42860563      -0.42860563       0.48723754 </v>
   <v>       0.07127194       0.48850316      -0.45110125 </v>
   <v>       0.48850316       0.07127194      -0.45110125 </v>
   <v>       0.07318077       0.48735032       0.42768464 </v>
   <v>       0.48735032       0.07318077       0.42768464 </v>
   <v>      -0.43416463      -0.43416463      -0.40530105 </v>
   <v>      -0.43344595      -0.43344595       0.36518450 </v>
   <v>      -0.45634243      -0.45634243      -0.45214125 </v>
   <v>      -0.45717754      -0.45717754       0.42690232 </v>
   <v>       0.12729630       0.46041353       0.48842929 </v>
   <v>       0.46041353       0.12729630       0.48842929 </v>
   <v>       0.11369918       0.46737161      -0.40363131 </v>
   <v>       0.46737161       0.11369918      -0.40363131 </v>
   <v>       0.11560595       0.46612894       0.38018406 </v>
   <v>       0.46612894       0.11560595       0.38018406 </v>
   <v>       0.48843120       0.48843120      -0.45106362 </v>
   <v>       0.48739571       0.48739571       0.42772026 </v>
   <v>       0.24566121       0.40125470       0.48847525 </v>
   <v>       0.40125470       0.24566121       0.48847525 </v>
   <v>       0.46039330       0.46039330       0.48849689 </v>
   <v>       0.29468990       0.45874823       0.48862217 </v>
   <v>       0.45874823       0.29468990       0.48862217 </v>
   <v>       0.46723741       0.46723741      -0.40358484 </v>
   <v>       0.46619681       0.46619681       0.38021581 </v>
   <v>       0.29470723       0.29470723       0.48826064 </v>
   <v>       0.40123319       0.40123319       0.48861939 </v>
  </varray>
 </structure>
 <varray name="primitive_index" >
  <v type="int" >        1 </v>
  <v type="int" >       14 </v>
  <v type="int" >       13 </v>
  <v type="int" >        3 </v>
  <v type="int" >        2 </v>
  <v type="int" >       10 </v>
  <v type="int" >       17 </v>
  <v type="int" >       15 </v>
  <v type="int" >       34 </v>
  <v type="int" >       37 </v>
  <v type="int" >       12 </v>
  <v type="int" >       31 </v>
  <v type="int" >       11 </v>
  <v type="int" >       23 </v>
  <v type="int" >       35 </v>
  <v type="int" >       39 </v>
  <v type="int" >        7 </v>
  <v type="int" >        9 </v>
  <v type="int" >       36 </v>
  <v type="int" >       16 </v>
  <v type="int" >       33 </v>
  <v type="int" >       30 </v>
  <v type="int" >       25 </v>
  <v type="int" >       24 </v>
  <v type="int" >       38 </v>
  <v type="int" >        8 </v>
  <v type="int" >       28 </v>
  <v type="int" >       21 </v>
  <v type="int" >       32 </v>
  <v type="int" >       29 </v>
  <v type="int" >       45 </v>
  <v type="int" >       44 </v>
  <v type="int" >       42 </v>
  <v type="int" >       41 </v>
  <v type="int" >       27 </v>
  <v type="int" >       22 </v>
  <v type="int" >       19 </v>
  <v type="int" >       18 </v>
  <v type="int" >       26 </v>
  <v type="int" >        5 </v>
  <v type="int" >        6 </v>
  <v type="int" >       43 </v>
  <v type="int" >       40 </v>
  <v type="int" >        4 </v>
  <v type="int" >       20 </v>
 </varray>
 <kpoints>
  <generation param="listgenerated">
   <i name="divisions" type="int">      20 </i>
   <v>       0.00000000       0.00000000       0.00000000 </v>
   <v>       0.50000000       0.50000000       0.00000000 </v>
   <v>       0.33333333       0.66666667       0.00000000 </v>
   <v>       0.00000000       0.00000000       0.00000000 </v>
  </generation>
  <varray name="kpointlist" >
   <v>       0.00000000       0.00000000       0.00000000 </v>
   <v>       0.02631579       0.02631579       0.00000000 </v>
   <v>       0.05263158       0.05263158       0.00000000 </v>
   <v>       0.07894737       0.07894737       0.00000000 </v>
   <v>       0.10526316       0.10526316       0.00000000 </v>
   <v>       0.13157895       0.13157895       0.00000000 </v>
   <v>       0.15789474       0.15789474       0.00000000 </v>
   <v>       0.18421053       0.18421053       0.00000000 </v>
   <v>       0.21052632       0.21052632       0.00000000 </v>
   <v>       0.23684211       0.23684211       0.00000000 </v>
   <v>       0.26315789       0.26315789       0.00000000 </v>
   <v>       0.28947368       0.28947368       0.00000000 </v>
   <v>       0.31578947       0.31578947       0.00000000 </v>
   <v>       0.34210526       0.34210526       0.00000000 </v>
   <v>       0.36842105       0.36842105       0.00000000 </v>
   <v>       0.39473684       0.39473684       0.00000000 </v>
   <v>       0.42105263       0.42105263       0.00000000 </v>
   <v>       0.44736842       0.44736842       0.00000000 </v>
   <v>       0.47368421       0.47368421       0.00000000 </v>
   <v>       0.50000000       0.50000000       0.00000000 </v>
   <v>       0.50000000       0.50000000       0.00000000 </v>
   <v>       0.49122807       0.50877193       0.00000000 </v>
   <v>       0.48245614       0.51754386       0.00000000 </v>
   <v>       0.47368421       0.52631579       0.00000000 </v>
   <v>       0.46491228       0.53508772       0.00000000 </v>
   <v>       0.45614035       0.54385965       0.00000000 </v>
   <v>       0.44736842       0.55263158       0.00000000 </v>
   <v>       0.43859649       0.56140351       0.00000000 </v>
   <v>       0.42982456       0.57017544       0.00000000 </v>
   <v>       0.42105263       0.57894737       0.00000000 </v>
   <v>       0.41228070       0.58771930       0.00000000 </v>
   <v>       0.40350877       0.59649123       0.00000000 </v>
   <v>       0.39473684       0.60526316       0.00000000 </v>
   <v>       0.38596491       0.61403509       0.00000000 </v>
   <v>       0.37719298       0.62280702       0.00000000 </v>
   <v>       0.36842105       0.63157895       0.00000000 </v>
   <v>       0.35964912       0.64035088       0.00000000 </v>
   <v>       0.35087719       0.64912281       0.00000000 </v>
   <v>       0.34210526       0.65789474       0.00000000 </v>
   <v>       0.33333333       0.66666667       0.00000000 </v>
   <v>       0.33333333       0.66666667       0.00000000 </v>
   <v>       0.31578947       0.63157895       0.00000000 </v>
   <v>       0.29824561       0.59649123       0.00000000 </v>
   <v>       0.28070175       0.56140351       0.00000000 </v>
   <v>       0.26315789       0.52631579       0.00000000 </v>
   <v>       0.24561404       0.49122807       0.00000000 </v>
   <v>       0.22807018       0.45614035       0.00000000 </v>
   <v>       0.21052632       0.42105263       0.00000000 </v>
   <v>       0.19298246       0.38596491       0.00000000 </v>
   <v>       0.17543860       0.35087719       0.00000000 </v>
   <v>       0.15789474       0.31578947       0.00000000 </v>
   <v>       0.14035088       0.28070175       0.00000000 </v>
   <v>       0.12280702       0.24561404       0.00000000 </v>
   <v>       0.10526316       0.21052632       0.00000000 </v>
   <v>       0.08771930       0.17543860       0.00000000 </v>
   <v>       0.07017544       0.14035088       0.00000000 </v>
   <v>       0.05263158       0.10526316       0.00000000 </v>
   <v>       0.03508772       0.07017544       0.00000000 </v>
   <v>       0.01754386       0.03508772       0.00000000 </v>
   <v>       0.00000000       0.00000000       0.00000000 </v>
  </varray>
  <varray name="weights" >
   <v>       0.01666667 </v>
   <v>       0.01666667 </v>
   <v>       0.01666667 </v>
   <v>       0.01666667 </v>
   <v>       0.01666667 </v>
   <v>       0.01666667 </v>
   <v>       0.01666667 </v>
   <v>       0.01666667 </v>
   <v>       0.01666667 </v>
   <v>       0.01666667 </v>
   <v>       0.01666667 </v>
   <v>       0.01666667 </v>
   <v>       0.01666667 </v>
   <v>       0.01666667 </v>
   <v>       0.01666667 </v>
   <v>       0.01666667 </v>
   <v>       0.01666667 </v>
   <v>       0.01666667 </v>
   <v>       0.01666667 </v>
   <v>       0.01666667 </v>
   <v>       0.01666667 </v>
   <v>       0.01666667 </v>
   <v>       0.01666667 </v>
   <v>       0.01666667 </v>
   <v>       0.01666667 </v>
   <v>       0.01666667 </v>
   <v>       0.01666667 </v>
   <v>       0.01666667 </v>
   <v>       0.01666667 </v>
   <v>       0.01666667 </v>
   <v>       0.01666667 </v>
   <v>       0.01666667 </v>
   <v>       0.01666667 </v>
   <v>       0.01666667 </v>
   <v>       0.01666667 </v>
   <v>       0.01666667 </v>
   <v>       0.01666667 </v>
   <v>       0.01666667 </v>
   <v>       0.01666667 </v>
   <v>       0.01666667 </v>
   <v>       0.01666667 </v>
   <v>       0.01666667 </v>
   <v>       0.01666667 </v>
   <v>       0.01666667 </v>
   <v>       0.01666667 </v>
   <v>       0.01666667 </v>
   <v>       0.01666667 </v>
   <v>       0.01666667 </v>
   <v>       0.01666667 </v>
   <v>       0.01666667 </v>
   <v>       0.01666667 </v>
   <v>       0.01666667 </v>
   <v>       0.01666667 </v>
   <v>       0.01666667 </v>
   <v>       0.01666667 </v>
   <v>       0.01666667 </v>
   <v>       0.01666667 </v>
   <v>       0.01666667 </v>
   <v>       0.01666667 </v>
   <v>       0.01666667 </v>
  </varray>
 </kpoints>
 <parameters>
  <separator name="general" >
   <i type="string" name="SYSTEM">Simulation for cell shape cell volume r</i>
   <i type="logical" name="LCOMPAT"> F  </i>
  </separator>
  <separator name="electronic" >
   <i type="string" name="PREC">high</i>
   <i name="ENMAX">    500.00000000</i>
   <i name="ENAUG">    644.87300000</i>
   <i name="EDIFF">      0.00001000</i>
   <i type="int" name="IALGO">    38</i>
   <i type="int" name="IWAVPR">    10</i>
   <i type="int" name="NBANDS">   112</i>
   <i name="NELECT">    156.00000000</i>
   <i type="int" name="TURBO">     0</i>
   <i type="int" name="IRESTART">     0</i>
   <i type="int" name="NREBOOT">     0</i>
   <i type="int" name="NMIN">     0</i>
   <i name="EREF">      0.00000000</i>
   <separator name="electronic smearing" >
    <i type="int" name="ISMEAR">     0</i>
    <i name="SIGMA">      0.01000000</i>
    <i name="KSPACING">      0.50000000</i>
    <i type="logical" name="KGAMMA"> T  </i>
   </separator>
   <separator name="electronic projectors" >
    <i type="logical" name="LREAL"> T  </i>
    <v name="ROPT">     -0.00040000     -0.00040000     -0.00040000     -0.00040000</v>
    <i type="int" name="LMAXPAW">  -100</i>
    <i type="int" name="LMAXMIX">     2</i>
    <i type="logical" name="NLSPLINE"> F  </i>
   </separator>
   <separator name="electronic startup" >
    <i type="int" name="ISTART">     1</i>
    <i type="int" name="ICHARG">    11</i>
    <i type="int" name="INIWAV">     1</i>
   </separator>
   <separator name="electronic spin" >
    <i type="int" name="ISPIN">     1</i>
    <i type="logical" name="LNONCOLLINEAR"> F  </i>
    <v name="MAGMOM">      1.00000000      1.00000000      1.00000000      1.00000000      1.00000000      1.00000000      1.00000000      1.00000000      1.00000000      1.00000000      1.00000000      1.00000000      1.00000000      1.00000000      1.00000000      1.00000000      1.00000000      1.00000000      1.00000000      1.00000000
      1.00000000      1.00000000      1.00000000      1.00000000      1.00000000      1.00000000      1.00000000      1.00000000      1.00000000      1.00000000      1.00000000      1.00000000      1.00000000      1.00000000      1.00000000      1.00000000      1.00000000      1.00000000      1.00000000      1.00000000
      1.00000000      1.00000000      1.00000000      1.00000000      1.00000000</v>
    <i name="NUPDOWN">     -1.00000000</i>
    <i type="logical" name="LSORBIT"> F  </i>
    <v name="SAXIS">      0.00000000      0.00000000      1.00000000</v>
    <i type="logical" name="LSPIRAL"> F  </i>
    <v name="QSPIRAL">      0.00000000      0.00000000      0.00000000</v>
    <i type="logical" name="LZEROZ"> F  </i>
   </separator>
   <separator name="electronic exchange-correlation" >
    <i type="logical" name="LASPH"> F  </i>
    <i type="logical" name="LMETAGGA"> F  </i>
   </separator>
   <separator name="electronic convergence" >
    <i type="int" name="NELM">   200</i>
    <i type="int" name="NELMDL">     0</i>
    <i type="int" name="NELMIN">     2</i>
    <i name="ENINI">    500.00000000</i>
    <separator name="electronic convergence detail" >
     <i type="logical" name="LDIAG"> T  </i>
     <i type="logical" name="LSUBROT"> F  </i>
     <i name="WEIMIN">      0.00000000</i>
     <i name="EBREAK">      0.00000002</i>
     <i name="DEPER">      0.30000000</i>
     <i type="int" name="NRMM">     4</i>
     <i name="TIME">      0.40000000</i>
    </separator>
   </separator>
   <separator name="electronic mixer" >
    <i name="AMIX">      0.40000000</i>
    <i name="BMIX">      1.00000000</i>
    <i name="AMIN">      0.10000000</i>
    <i name="AMIX_MAG">      1.60000000</i>
    <i name="BMIX_MAG">      1.00000000</i>
    <separator name="electronic mixer details" >
     <i type="int" name="IMIX">     4</i>
     <i type="logical" name="MIXFIRST"> F  </i>
     <i type="int" name="MAXMIX">   -45</i>
     <i name="WC">    100.00000000</i>
     <i type="int" name="INIMIX">     1</i>
     <i type="int" name="MIXPRE">     1</i>
     <i type="int" name="MREMOVE">     5</i>
    </separator>
   </separator>
   <separator name="electronic dipolcorrection" >
    <i type="logical" name="LDIPOL"> F  </i>
    <i type="logical" name="LMONO"> F  </i>
    <i type="int" name="IDIPOL">     0</i>
    <i name="EPSILON">      1.00000000</i>
    <v name="DIPOL">   -100.00000000   -100.00000000   -100.00000000</v>
    <i name="EFIELD">      0.00000000</i>
   </separator>
  </separator>
  <separator name="grids" >
   <i type="int" name="NGX">   108</i>
   <i type="int" name="NGY">   108</i>
   <i type="int" name="NGZ">   150</i>
   <i type="int" name="NGXF">   160</i>
   <i type="int" name="NGYF">   160</i>
   <i type="int" name="NGZF">   224</i>
   <i type="logical" name="ADDGRID"> F  </i>
  </separator>
  <separator name="ionic" >
   <i type="int" name="NSW">     0</i>
   <i type="int" name="IBRION">    -1</i>
   <i type="int" name="MDALGO">     0</i>
   <i type="int" name="ISIF">     2</i>
   <i name="PSTRESS">      0.00000000</i>
   <i name="EDIFFG">     -0.01000000</i>
   <i type="int" name="NFREE">     0</i>
   <i name="POTIM">      0.30000000</i>
   <i name="SMASS">     -3.00000000</i>
   <i name="SCALEE">      1.00000000</i>
  </separator>
  <separator name="ionic md" >
   <i name="TEBEG">      0.00010000</i>
   <i name="TEEND">      0.00010000</i>
   <i type="int" name="NBLOCK">     1</i>
   <i type="int" name="KBLOCK">     1</i>
   <i type="int" name="NPACO">   256</i>
   <i name="APACO">     16.00000000</i>
  </separator>
  <separator name="symmetry" >
   <i type="int" name="ISYM">     2</i>
   <i name="SYMPREC">      0.00001000</i>
  </separator>
  <separator name="dos" >
   <i type="int" name="LORBIT">     0</i>
   <v name="RWIGS">     -1.00000000     -1.00000000     -1.00000000     -1.00000000</v>
   <i type="int" name="NEDOS">   301</i>
   <i name="EMIN">     10.00000000</i>
   <i name="EMAX">    -10.00000000</i>
   <i name="EFERMI">      0.00000000</i>
  </separator>
  <separator name="writing" >
   <i type="int" name="NWRITE">     0</i>
   <i type="logical" name="LWAVE"> F  </i>
   <i type="logical" name="LDOWNSAMPLE"> F  </i>
   <i type="logical" name="LCHARG"> F  </i>
   <i type="logical" name="LPARD"> F  </i>
   <i type="logical" name="LVTOT"> F  </i>
   <i type="logical" name="LVHAR"> F  </i>
   <i type="logical" name="LELF"> F  </i>
   <i type="logical" name="LOPTICS"> F  </i>
   <v name="STM">      0.00000000      0.00000000      0.00000000      0.00000000      0.00000000      0.00000000      0.00000000</v>
  </separator>
  <separator name="performance" >
   <i type="int" name="NPAR">    16</i>
   <i type="int" name="NSIM">     4</i>
   <i type="int" name="NBLK">    -1</i>
   <i type="logical" name="LPLANE"> T  </i>
   <i type="logical" name="LSCALAPACK"> T  </i>
   <i type="logical" name="LSCAAWARE"> F  </i>
   <i type="logical" name="LSCALU"> F  </i>
   <i type="logical" name="LASYNC"> F  </i>
   <i type="logical" name="LORBITALREAL"> F  </i>
  </separator>
  <separator name="miscellaneous" >
   <i type="int" name="IDIOT">     3</i>
   <i type="int" name="ISPECIAL">     0</i>
   <i type="logical" name="LMUSIC"> F  </i>
   <v name="POMASS">     14.00100000     16.00000000     12.01100000      1.00000000</v>
   <v name="DARWINR">      0.00000000      0.00000000      0.00000000      0.00000000</v>
   <v name="DARWINV">      1.00000000      1.00000000      1.00000000      1.00000000</v>
   <i type="logical" name="LCORR"> T  </i>
  </separator>
  <i type="logical" name="GGA_COMPAT"> T  </i>
  <i type="logical" name="LBERRY"> F  </i>
  <i type="int" name="ICORELEVEL">     0</i>
  <i type="logical" name="LDAU"> F  </i>
  <i type="int" name="I_CONSTRAINED_M">     0</i>
  <separator name="electronic exchange-correlation" >
   <i type="string" name="GGA">PE</i>
   <i type="int" name="VOSKOWN">     0</i>
   <i type="logical" name="LHFCALC"> F  </i>
   <i type="string" name="PRECFOCK"></i>
   <i type="logical" name="LSYMGRAD"> F  </i>
   <i type="logical" name="LHFONE"> F  </i>
   <i type="logical" name="LRHFCALC"> F  </i>
   <i type="logical" name="LTHOMAS"> F  </i>
   <i type="logical" name="LMODELHF"> F  </i>
   <i name="ENCUT4O">     -1.00000000</i>
   <i type="int" name="EXXOEP">     0</i>
   <i type="int" name="FOURORBIT">     0</i>
   <i name="AEXX">      0.00000000</i>
   <i name="HFALPHA">      0.00000000</i>
   <i name="MCALPHA">      0.00000000</i>
   <i name="ALDAX">      1.00000000</i>
   <i name="AGGAX">      1.00000000</i>
   <i name="ALDAC">      1.00000000</i>
   <i name="AGGAC">      1.00000000</i>
   <i type="int" name="NKREDX">     1</i>
   <i type="int" name="NKREDY">     1</i>
   <i type="int" name="NKREDZ">     1</i>
   <i type="logical" name="SHIFTRED"> F  </i>
   <i type="logical" name="ODDONLY"> F  </i>
   <i type="logical" name="EVENONLY"> F  </i>
   <i type="int" name="LMAXFOCK">     0</i>
   <i type="int" name="NMAXFOCKAE">     0</i>
   <i type="logical" name="LFOCKAEDFT"> F  </i>
   <i name="HFSCREEN">      0.00000000</i>
   <i name="HFSCREENC">      0.00000000</i>
   <i type="int" name="NBANDSGWLOW">     0</i>
  </separator>
  <separator name="vdW DFT" >
   <i type="logical" name="LUSE_VDW"> F  </i>
   <i name="Zab_VDW">     -0.84910000</i>
   <i name="PARAM1">      0.12340000</i>
   <i name="PARAM2">      1.00000000</i>
   <i name="PARAM3">      0.00000000</i>
  </separator>
  <separator name="model GW" >
   <i type="int" name="MODEL_GW">     0</i>
   <i name="MODEL_EPS0">     48.93593846</i>
   <i name="MODEL_ALPHA">      1.00000000</i>
  </separator>
  <separator name="linear response parameters" >
   <i type="logical" name="LEPSILON"> F  </i>
   <i type="logical" name="LRPA"> F  </i>
   <i type="logical" name="LNABLA"> F  </i>
   <i type="logical" name="LVEL"> F  </i>
   <i type="int" name="KINTER">     0</i>
   <i name="CSHIFT">      0.10000000</i>
   <i name="OMEGAMAX">     -1.00000000</i>
   <i name="DEG_THRESHOLD">      0.00200000</i>
   <i name="RTIME">     -0.10000000</i>
   <i name="WPLASMAI">      0.00000000</i>
   <v name="DFIELD">      0.00000000      0.00000000      0.00000000</v>
   <v name="WPLASMA">      0.00000000      0.00000000      0.00000000      0.00000000      0.00000000      0.00000000      0.00000000      0.00000000      0.00000000</v>
  </separator>
  <separator name="orbital magnetization" >
   <i type="logical" name="NUCIND"> F  </i>
   <v name="MAGPOS">      0.00000000      0.00000000      0.00000000</v>
   <i type="logical" name="LNICSALL"> T  </i>
   <i type="logical" name="ORBITALMAG"> F  </i>
   <i type="logical" name="LMAGBLOCH"> F  </i>
   <i type="logical" name="LCHIMAG"> F  </i>
   <i type="logical" name="LGAUGE"> T  </i>
   <i type="int" name="MAGATOM">     0</i>
   <v name="MAGDIPOL">      0.00000000      0.00000000      0.00000000</v>
   <v name="AVECCONST">      0.00000000      0.00000000      0.00000000</v>
  </separator>
  <separator name="response functions" >
   <i type="logical" name="LADDER"> F  </i>
   <i type="logical" name="LRPAFORCE"> F  </i>
   <i type="logical" name="LFXC"> F  </i>
   <i type="logical" name="LHARTREE"> T  </i>
   <i type="int" name="IBSE">     0</i>
   <v type="int" name="KPOINT">    -1     0     0     0</v>
   <i type="logical" name="LTCTE"> F  </i>
   <i type="logical" name="LTETE"> F  </i>
   <i type="logical" name="LTRIPLET"> F  </i>
   <i type="logical" name="LFXCEPS"> F  </i>
   <i type="logical" name="LFXHEG"> F  </i>
   <i type="int" name="NATURALO">     2</i>
   <i type="logical" name="L2ORDER"> F  </i>
   <i type="logical" name="LMP2LT"> F  </i>
   <i type="logical" name="LUSEW"> F  </i>
   <i name="ENCUTGW">     -2.00000000</i>
   <i name="ENCUTGWSOFT">     -2.00000000</i>
   <i name="ENCUTLF">     -1.00000000</i>
   <i type="int" name="LMAXMP2">    -1</i>
   <i name="SCISSOR">      0.00000000</i>
   <i type="int" name="NOMEGA">     0</i>
   <i type="int" name="NOMEGAR">     0</i>
   <i type="int" name="NBANDSGW">    -1</i>
   <i type="int" name="NBANDSO">    -1</i>
   <i type="int" name="NBANDSV">    -1</i>
   <i type="int" name="NELM">   200</i>
   <i type="int" name="NELMHF">     1</i>
   <i type="int" name="DIM">     3</i>
   <i type="int" name="ANTIRES">     0</i>
   <i name="OMEGAMAX">    -30.00000000</i>
   <i name="OMEGAMIN">    -30.00000000</i>
   <i name="OMEGATL">   -200.00000000</i>
   <i type="int" name="OMEGAGRID">   140</i>
   <i name="CSHIFT">     -0.10000000</i>
   <i type="logical" name="SELFENERGY"> F  </i>
   <i type="logical" name="LSPECTRAL"> F  </i>
   <i type="logical" name="LSPECTRALGW"> F  </i>
   <i type="logical" name="LSINGLES"> F  </i>
   <i type="logical" name="LFERMIGW"> F  </i>
   <i type="logical" name="ODDONLYGW"> F  </i>
   <i type="logical" name="EVENONLYGW"> F  </i>
   <i type="int" name="NKREDLFX">     1</i>
   <i type="int" name="NKREDLFY">     1</i>
   <i type="int" name="NKREDLFZ">     1</i>
   <i type="int" name="MAXMEM">  2800</i>
   <i type="int" name="TELESCOPE">     0</i>
   <i type="int" name="TAUPAR">     1</i>
   <i type="int" name="OMEGAPAR">    -1</i>
   <i name="LAMBDA">      1.00000000</i>
  </separator>
  <separator name="External order field" >
   <i name="OFIELD_KAPPA">      0.00000000</i>
   <v name="OFIELD_K">      0.00000000      0.00000000      0.00000000</v>
   <i name="OFIELD_Q6_NEAR">      0.00000000</i>
   <i name="OFIELD_Q6_FAR">      0.00000000</i>
   <i name="OFIELD_A">      0.00000000</i>
  </separator>
  <separator name="solvation model" >
   <i type="logical" name="LSOL"> F  </i>
  </separator>
 </parameters>
 <atominfo>
  <atoms>      45 </atoms>
  <types>       4 </types>
  <array name="atoms" >
   <dimension dim="1">ion</dimension>
   <field type="string">element</field>
   <field type="int">atomtype</field>
   <set>
    <rc><c>N </c><c>   1</c></rc>
    <rc><c>N </c><c>   1</c></rc>
    <rc><c>N </c><c>   1</c></rc>
    <rc><c>N </c><c>   1</c></rc>
    <rc><c>N </c><c>   1</c></rc>
    <rc><c>N </c><c>   1</c></rc>
    <rc><c>O </c><c>   2</c></rc>
    <rc><c>O </c><c>   2</c></rc>
    <rc><c>O </c><c>   2</c></rc>
    <rc><c>C </c><c>   3</c></rc>
    <rc><c>C </c><c>   3</c></rc>
    <rc><c>C </c><c>   3</c></rc>
    <rc><c>C </c><c>   3</c></rc>
    <rc><c>C </c><c>   3</c></rc>
    <rc><c>C </c><c>   3</c></rc>
    <rc><c>C </c><c>   3</c></rc>
    <rc><c>C </c><c>   3</c></rc>
    <rc><c>C </c><c>   3</c></rc>
    <rc><c>C </c><c>   3</c></rc>
    <rc><c>C </c><c>   3</c></rc>
    <rc><c>C </c><c>   3</c></rc>
    <rc><c>C </c><c>   3</c></rc>
    <rc><c>C </c><c>   3</c></rc>
    <rc><c>C </c><c>   3</c></rc>
    <rc><c>C </c><c>   3</c></rc>
    <rc><c>C </c><c>   3</c></rc>
    <rc><c>C </c><c>   3</c></rc>
    <rc><c>C </c><c>   3</c></rc>
    <rc><c>C </c><c>   3</c></rc>
    <rc><c>C </c><c>   3</c></rc>
    <rc><c>C </c><c>   3</c></rc>
    <rc><c>C </c><c>   3</c></rc>
    <rc><c>C </c><c>   3</c></rc>
    <rc><c>H </c><c>   4</c></rc>
    <rc><c>H </c><c>   4</c></rc>
    <rc><c>H </c><c>   4</c></rc>
    <rc><c>H </c><c>   4</c></rc>
    <rc><c>H </c><c>   4</c></rc>
    <rc><c>H </c><c>   4</c></rc>
    <rc><c>H </c><c>   4</c></rc>
    <rc><c>H </c><c>   4</c></rc>
    <rc><c>H </c><c>   4</c></rc>
    <rc><c>H </c><c>   4</c></rc>
    <rc><c>H </c><c>   4</c></rc>
    <rc><c>H </c><c>   4</c></rc>
   </set>
  </array>
  <array name="atomtypes" >
   <dimension dim="1">type</dimension>
   <field type="int">atomspertype</field>
   <field type="string">element</field>
   <field>mass</field>
   <field>valence</field>
   <field type="string">pseudopotential</field>
   <set>
    <rc><c>   6</c><c>N </c><c>     14.00100000</c><c>      5.00000000</c><c>  PAW_PBE N 08Apr2002                   </c></rc>
    <rc><c>   3</c><c>O </c><c>     16.00000000</c><c>      6.00000000</c><c>  PAW_PBE O 08Apr2002                   </c></rc>
    <rc><c>  24</c><c>C </c><c>     12.01100000</c><c>      4.00000000</c><c>  PAW_PBE C 08Apr2002                   </c></rc>
    <rc><c>  12</c><c>H </c><c>      1.00000000</c><c>      1.00000000</c><c>  PAW_PBE H 15Jun2001                   </c></rc>
   </set>
  </array>
 </atominfo>
 <structure name="initialpos" >
  <crystal>
   <varray name="basis" >
    <v>      14.55772497       0.00169687       0.00000000 </v>
    <v>       7.28033202      12.60651121       0.00000000 </v>
    <v>       0.00000000       0.00000000      20.00000000 </v>
   </varray>
   <i name="volume">   3670.19538433 </i>
   <varray name="rec_basis" >
    <v>       0.06869668      -0.03967272       0.00000000 </v>
    <v>      -0.00000925       0.07932943       0.00000000 </v>
    <v>       0.00000000       0.00000000       0.05000000 </v>
   </varray>
  </crystal>
  <varray name="positions" >
   <v>       0.73730425       0.73730425       0.48723701 </v>
   <v>       0.73737058       0.57321772       0.48648212 </v>
   <v>       0.57321772       0.73737058       0.48648212 </v>
   <v>       0.29470723       0.29470723       0.48826064 </v>
   <v>       0.29468990       0.45874823       0.48862217 </v>
   <v>       0.45874823       0.29468990       0.48862217 </v>
   <v>       0.91478244       0.56645545       0.36518315 </v>
   <v>       0.56655405       0.56655405       0.36518450 </v>
   <v>       0.56645545       0.91478244       0.36518315 </v>
   <v>       0.90521441       0.57135270       0.48727224 </v>
   <v>       0.96228986       0.54274168       0.42689749 </v>
   <v>       0.96079975       0.54370542       0.54785685 </v>
   <v>       0.78692287       0.63047535       0.48716860 </v>
   <v>       0.63047535       0.78692287       0.48716860 </v>
   <v>       0.63052007       0.63052007       0.48693344 </v>
   <v>       0.57139437       0.57139437       0.48723754 </v>
   <v>       0.57135270       0.90521441       0.48727224 </v>
   <v>       0.40125470       0.24566121       0.48847525 </v>
   <v>       0.24566121       0.40125470       0.48847525 </v>
   <v>       0.40123319       0.40123319       0.48861939 </v>
   <v>       0.54282246       0.54282246       0.42690232 </v>
   <v>       0.48739571       0.48739571       0.42772026 </v>
   <v>       0.54274168       0.96228986       0.42689749 </v>
   <v>       0.48735032       0.07318077       0.42768464 </v>
   <v>       0.07318077       0.48735032       0.42768464 </v>
   <v>       0.46039330       0.46039330       0.48849689 </v>
   <v>       0.48843120       0.48843120       0.54893638 </v>
   <v>       0.54365757       0.54365757       0.54785875 </v>
   <v>       0.46041353       0.12729630       0.48842929 </v>
   <v>       0.48850316       0.07127194       0.54889875 </v>
   <v>       0.54370542       0.96079975       0.54785685 </v>
   <v>       0.12729630       0.46041353       0.48842929 </v>
   <v>       0.07127194       0.48850316       0.54889875 </v>
   <v>       0.83802990       0.60488419       0.37023100 </v>
   <v>       0.91642879       0.56597055       0.59469397 </v>
   <v>       0.60492236       0.60492236       0.37028421 </v>
   <v>       0.60488419       0.83802990       0.37023100 </v>
   <v>       0.56583537       0.56583537       0.59469895 </v>
   <v>       0.56597055       0.91642879       0.59469397 </v>
   <v>       0.46619681       0.46619681       0.38021581 </v>
   <v>       0.46612894       0.11560595       0.38018406 </v>
   <v>       0.11560595       0.46612894       0.38018406 </v>
   <v>       0.46723741       0.46723741       0.59641516 </v>
   <v>       0.46737161       0.11369918       0.59636869 </v>
   <v>       0.11369918       0.46737161       0.59636869 </v>
  </varray>
 </structure>
 <calculation>
  <scstep>
   <time name="dav">   26.67   26.87</time>
   <time name="total">   26.75   26.96</time>
   <energy>
    <i name="alphaZ">     30.64096458 </i>
    <i name="ewald">  16453.43904388 </i>
    <i name="hartreedc"> -21889.51044803 </i>
    <i name="XCdc">    569.02103438 </i>
    <i name="pawpsdc">  14652.34191985 </i>
    <i name="pawaedc"> -14683.34878279 </i>
    <i name="eentropy">     -0.00000000 </i>
    <i name="bandstr">  -2025.56713226 </i>
    <i name="atom">   6565.67767922 </i>
    <i name="e_fr_energy">   -327.30572118 </i>
    <i name="e_wo_entrp">   -327.30572118 </i>
    <i name="e_0_energy">   -327.30572118 </i>
   </energy>
  </scstep>
  <scstep>
   <time name="dav">   30.58   30.80</time>
   <time name="total">   30.58   30.81</time>
   <energy>
    <i name="e_fr_energy">   -327.69319247 </i>
    <i name="e_wo_entrp">   -327.69319247 </i>
    <i name="e_0_energy">   -327.69319247 </i>
   </energy>
  </scstep>
  <scstep>
   <time name="dav">   31.98   32.20</time>
   <time name="total">   31.98   32.21</time>
   <energy>
    <i name="e_fr_energy">   -327.70109859 </i>
    <i name="e_wo_entrp">   -327.70109859 </i>
    <i name="e_0_energy">   -327.70109859 </i>
   </energy>
  </scstep>
  <scstep>
   <time name="dav">   29.06   29.27</time>
   <time name="total">   29.07   29.27</time>
   <energy>
    <i name="e_fr_energy">   -327.70126117 </i>
    <i name="e_wo_entrp">   -327.70126117 </i>
    <i name="e_0_energy">   -327.70126117 </i>
   </energy>
  </scstep>
  <scstep>
   <time name="dav">   26.60   26.79</time>
   <time name="total">   26.61   26.80</time>
   <energy>
    <i name="alphaZ">     30.64096458 </i>
    <i name="ewald">  16453.43904388 </i>
    <i name="hartreedc"> -21889.51044803 </i>
    <i name="XCdc">    569.02103438 </i>
    <i name="pawpsdc">  14652.34191985 </i>
    <i name="pawaedc"> -14683.34878279 </i>
    <i name="eentropy">     -0.00000000 </i>
    <i name="bandstr">  -2025.96268064 </i>
    <i name="atom">   6565.67767922 </i>
    <i name="e_fr_energy">   -327.70126956 </i>
    <i name="e_wo_entrp">   -327.70126956 </i>
    <i name="e_0_energy">   -327.70126956 </i>
   </energy>
  </scstep>
  <structure>
   <crystal>
    <varray name="basis" >
     <v>      14.55772497       0.00169687       0.00000000 </v>
     <v>       7.28033202      12.60651121       0.00000000 </v>
     <v>       0.00000000       0.00000000      20.00000000 </v>
    </varray>
    <i name="volume">   3670.19538433 </i>
    <varray name="rec_basis" >
     <v>       0.06869668      -0.03967272       0.00000000 </v>
     <v>      -0.00000925       0.07932943       0.00000000 </v>
     <v>       0.00000000       0.00000000       0.05000000 </v>
    </varray>
   </crystal>
   <varray name="positions" >
    <v>       0.73730425       0.73730425       0.48723701 </v>
    <v>       0.73737058       0.57321772       0.48648212 </v>
    <v>       0.57321772       0.73737058       0.48648212 </v>
    <v>       0.29470723       0.29470723       0.48826064 </v>
    <v>       0.29468990       0.45874823       0.48862217 </v>
    <v>       0.45874823       0.29468990       0.48862217 </v>
    <v>       0.91478244       0.56645545       0.36518315 </v>
    <v>       0.56655405       0.56655405       0.36518450 </v>
    <v>       0.56645545       0.91478244       0.36518315 </v>
    <v>       0.90521441       0.57135270       0.48727224 </v>
    <v>       0.96228986       0.54274168       0.42689749 </v>
    <v>       0.96079975       0.54370542       0.54785685 </v>
    <v>       0.78692287       0.63047535       0.48716860 </v>
    <v>       0.63047535       0.78692287       0.48716860 </v>
    <v>       0.63052007       0.63052007       0.48693344 </v>
    <v>       0.57139437       0.57139437       0.48723754 </v>
    <v>       0.57135270       0.90521441       0.48727224 </v>
    <v>       0.40125470       0.24566121       0.48847525 </v>
    <v>       0.24566121       0.40125470       0.48847525 </v>
    <v>       0.40123319       0.40123319       0.48861939 </v>
    <v>       0.54282246       0.54282246       0.42690232 </v>
    <v>       0.48739571       0.48739571       0.42772026 </v>
    <v>       0.54274168       0.96228986       0.42689749 </v>
    <v>       0.48735032       0.07318077       0.42768464 </v>
    <v>       0.07318077       0.48735032       0.42768464 </v>
    <v>       0.46039330       0.46039330       0.48849689 </v>
    <v>       0.48843120       0.48843120       0.54893638 </v>
    <v>       0.54365757       0.54365757       0.54785875 </v>
    <v>       0.46041353       0.12729630       0.48842929 </v>
    <v>       0.48850316       0.07127194       0.54889875 </v>
    <v>       0.54370542       0.96079975       0.54785685 </v>
    <v>       0.12729630       0.46041353       0.48842929 </v>
    <v>       0.07127194       0.48850316       0.54889875 </v>
    <v>       0.83802990       0.60488419       0.37023100 </v>
    <v>       0.91642879       0.56597055       0.59469397 </v>
    <v>       0.60492236       0.60492236       0.37028421 </v>
    <v>       0.60488419       0.83802990       0.37023100 </v>
    <v>       0.56583537       0.56583537       0.59469895 </v>
    <v>       0.56597055       0.91642879       0.59469397 </v>
    <v>       0.46619681       0.46619681       0.38021581 </v>
    <v>       0.46612894       0.11560595       0.38018406 </v>
    <v>       0.11560595       0.46612894       0.38018406 </v>
    <v>       0.46723741       0.46723741       0.59641516 </v>
    <v>       0.46737161       0.11369918       0.59636869 </v>
    <v>       0.11369918       0.46737161       0.59636869 </v>
   </varray>
  </structure>
  <varray name="forces" >
   <v>      -0.00563596      -0.00325392       0.00002111 </v>
   <v>       0.00219181      -0.00149078      -0.00580607 </v>
   <v>      -0.00019515       0.00264355      -0.00580607 </v>
   <v>       0.00218690       0.00126261       0.00122702 </v>
   <v>      -0.00302010       0.00424716       0.00057542 </v>
   <v>       0.00216810      -0.00473907       0.00057542 </v>
   <v>       0.00221790      -0.00054492       0.00185759 </v>
   <v>      -0.00372494      -0.00215060      -0.00155320 </v>
   <v>       0.00063704       0.00219321       0.00185759 </v>
   <v>       0.00234459       0.00177584      -0.00021081 </v>
   <v>      -0.00424636       0.00247938       0.00105994 </v>
   <v>      -0.00444116       0.00334184      -0.00090222 </v>
   <v>       0.00325580       0.00517925       0.00215177 </v>
   <v>       0.00611326       0.00022998       0.00215177 </v>
   <v>      -0.00098746      -0.00057011      -0.00109617 </v>
   <v>       0.00070321       0.00040600      -0.00159695 </v>
   <v>       0.00271022       0.00114256      -0.00021081 </v>
   <v>      -0.00572674      -0.00091763       0.00107986 </v>
   <v>      -0.00365806      -0.00450069       0.00107986 </v>
   <v>      -0.00069357      -0.00040043       0.00275307 </v>
   <v>      -0.00061330      -0.00035409      -0.00492802 </v>
   <v>       0.00330484       0.00190805       0.00166198 </v>
   <v>       0.00002403      -0.00491715       0.00105994 </v>
   <v>       0.00013317       0.00025956       0.00251072 </v>
   <v>       0.00029137      -0.00001445       0.00251072 </v>
   <v>      -0.00298115      -0.00172117       0.00154969 </v>
   <v>       0.00492427       0.00284303       0.00085460 </v>
   <v>       0.00442205       0.00255307      -0.00109997 </v>
   <v>      -0.00115032      -0.00215016       0.00008289 </v>
   <v>       0.00196425      -0.00077338      -0.00063203 </v>
   <v>       0.00067354      -0.00551708      -0.00090222 </v>
   <v>      -0.00243725       0.00007887       0.00008289 </v>
   <v>       0.00031236       0.00208778      -0.00063203 </v>
   <v>       0.00339495      -0.00401666       0.00165206 </v>
   <v>       0.00296743      -0.00129066      -0.00010592 </v>
   <v>      -0.00553361      -0.00319483      -0.00534974 </v>
   <v>      -0.00178106       0.00494845       0.00165206 </v>
   <v>       0.00110338       0.00063704      -0.00341313 </v>
   <v>       0.00036597       0.00321519      -0.00010592 </v>
   <v>      -0.00120742      -0.00069710       0.00355732 </v>
   <v>      -0.00096872      -0.00369336       0.00181720 </v>
   <v>      -0.00368291       0.00100774       0.00181720 </v>
   <v>       0.00097239       0.00056141       0.00047085 </v>
   <v>       0.00206356       0.00023915      -0.00165964 </v>
   <v>       0.00123889       0.00166752      -0.00165964 </v>
  </varray>
  <varray name="stress" >
   <v>       0.00256593       0.01364668       0.00983840 </v>
   <v>       0.01364668      -0.01319190       0.00568020 </v>
   <v>       0.00983840       0.00568020      -0.30414444 </v>
  </varray>
  <energy>
   <i name="e_fr_energy">   -328.66896479 </i>
   <i name="e_wo_entrp">   -328.66896479 </i>
   <i name="e_0_energy">     -0.00000000 </i>
  </energy>
  <time name="totalsc">  164.76  166.02</time>
  <eigenvalues>
   <array>
    <dimension dim="1">band</dimension>
    <dimension dim="2">kpoint</dimension>
    <dimension dim="3">spin</dimension>
    <field>eigene</field>
    <field>occ</field>
    <set>
     <set comment="spin 1">
      <set comment="kpoint 1">
       <r>  -26.4813    1.0000 </r>
       <r>  -26.4573    1.0000 </r>
       <r>  -26.4572    1.0000 </r>
       <r>  -25.7562    1.0000 </r>
       <r>  -25.2960    1.0000 </r>
       <r>  -22.7634    1.0000 </r>
       <r>  -22.7606    1.0000 </r>
       <r>  -22.3153    1.0000 </r>
       <r>  -22.3151    1.0000 </r>
       <r>  -21.0465    1.0000 </r>
       <r>  -20.9918    1.0000 </r>
       <r>  -20.9915    1.0000 </r>
       <r>  -19.1499    1.0000 </r>
       <r>  -19.1495    1.0000 </r>
       <r>  -18.7336    1.0000 </r>
       <r>  -18.1870    1.0000 </r>
       <r>  -18.1867    1.0000 </r>
       <r>  -18.1719    1.0000 </r>
       <r>  -17.4824    1.0000 </r>
       <r>  -17.4814    1.0000 </r>
       <r>  -15.9232    1.0000 </r>
       <r>  -15.8281    1.0000 </r>
       <r>  -15.8279    1.0000 </r>
       <r>  -14.8830    1.0000 </r>
       <r>  -14.8589    1.0000 </r>
       <r>  -14.8583    1.0000 </r>
       <r>  -14.6797    1.0000 </r>
       <r>  -14.6772    1.0000 </r>
       <r>  -14.0469    1.0000 </r>
       <r>  -13.9026    1.0000 </r>
       <r>  -13.4224    1.0000 </r>
       <r>  -12.8212    1.0000 </r>
       <r>  -12.7075    1.0000 </r>
       <r>  -12.7062    1.0000 </r>
       <r>  -12.2698    1.0000 </r>
       <r>  -11.9447    1.0000 </r>
       <r>  -11.9429    1.0000 </r>
       <r>  -11.5234    1.0000 </r>
       <r>  -11.3787    1.0000 </r>
       <r>  -11.3769    1.0000 </r>
       <r>  -11.0116    1.0000 </r>
       <r>  -10.4662    1.0000 </r>
       <r>  -10.4656    1.0000 </r>
       <r>  -10.4594    1.0000 </r>
       <r>  -10.0819    1.0000 </r>
       <r>  -10.0725    1.0000 </r>
       <r>  -10.0723    1.0000 </r>
       <r>   -9.7061    1.0000 </r>
       <r>   -9.6772    1.0000 </r>
       <r>   -9.6635    1.0000 </r>
       <r>   -9.6625    1.0000 </r>
       <r>   -9.2856    1.0000 </r>
       <r>   -9.2841    1.0000 </r>
       <r>   -9.1024    1.0000 </r>
       <r>   -8.8464    1.0000 </r>
       <r>   -8.8425    1.0000 </r>
       <r>   -8.7575    1.0000 </r>
       <r>   -8.3565    1.0000 </r>
       <r>   -8.2500    1.0000 </r>
       <r>   -8.2496    1.0000 </r>
       <r>   -8.0515    1.0000 </r>
       <r>   -8.0479    1.0000 </r>
       <r>   -7.9966    1.0000 </r>
       <r>   -7.8935    1.0000 </r>
       <r>   -7.8903    1.0000 </r>
       <r>   -7.8872    1.0000 </r>
       <r>   -7.5767    1.0000 </r>
       <r>   -7.5754    1.0000 </r>
       <r>   -6.3133    1.0000 </r>
       <r>   -6.3123    1.0000 </r>
       <r>   -6.0790    1.0000 </r>
       <r>   -6.0762    1.0000 </r>
       <r>   -5.9461    1.0000 </r>
       <r>   -5.6943    1.0000 </r>
       <r>   -5.6937    1.0000 </r>
       <r>   -5.3130    1.0000 </r>
       <r>   -5.3125    1.0000 </r>
       <r>   -5.2515    1.0000 </r>
       <r>   -2.6518    0.0000 </r>
       <r>   -2.6508    0.0000 </r>
       <r>   -2.0054    0.0000 </r>
       <r>   -2.0053    0.0000 </r>
       <r>   -1.1929    0.0000 </r>
       <r>   -1.1537    0.0000 </r>
       <r>   -1.1530    0.0000 </r>
       <r>   -0.8737    0.0000 </r>
       <r>   -0.6004    0.0000 </r>
       <r>   -0.6004    0.0000 </r>
       <r>   -0.5066    0.0000 </r>
       <r>   -0.0771    0.0000 </r>
       <r>    0.3178    0.0000 </r>
       <r>    0.6400    0.0000 </r>
       <r>    0.7717    0.0000 </r>
       <r>    0.7728    0.0000 </r>
       <r>    0.8019    0.0000 </r>
       <r>    0.8291    0.0000 </r>
       <r>    0.8306    0.0000 </r>
       <r>    0.8906    0.0000 </r>
       <r>    1.1642    0.0000 </r>
       <r>    1.1646    0.0000 </r>
       <r>    1.2282    0.0000 </r>
       <r>    1.4328    0.0000 </r>
       <r>    1.4570    0.0000 </r>
       <r>    1.4579    0.0000 </r>
       <r>    1.6263    0.0000 </r>
       <r>    1.7269    0.0000 </r>
       <r>    1.7277    0.0000 </r>
       <r>    1.7387    0.0000 </r>
       <r>    1.7944    0.0000 </r>
       <r>    1.8180    0.0000 </r>
       <r>    1.8198    0.0000 </r>
       <r>    1.8232    0.0000 </r>
      </set>
      <set comment="kpoint 2">
       <r>  -26.4813    1.0000 </r>
       <r>  -26.4573    1.0000 </r>
       <r>  -26.4572    1.0000 </r>
       <r>  -25.7562    1.0000 </r>
       <r>  -25.2960    1.0000 </r>
       <r>  -22.7634    1.0000 </r>
       <r>  -22.7606    1.0000 </r>
       <r>  -22.3154    1.0000 </r>
       <r>  -22.3151    1.0000 </r>
       <r>  -21.0464    1.0000 </r>
       <r>  -20.9918    1.0000 </r>
       <r>  -20.9915    1.0000 </r>
       <r>  -19.1498    1.0000 </r>
       <r>  -19.1491    1.0000 </r>
       <r>  -18.7345    1.0000 </r>
       <r>  -18.1870    1.0000 </r>
       <r>  -18.1867    1.0000 </r>
       <r>  -18.1720    1.0000 </r>
       <r>  -17.4814    1.0000 </r>
       <r>  -17.4806    1.0000 </r>
       <r>  -15.9469    1.0000 </r>
       <r>  -15.8281    1.0000 </r>
       <r>  -15.8043    1.0000 </r>
       <r>  -14.8829    1.0000 </r>
       <r>  -14.8589    1.0000 </r>
       <r>  -14.8584    1.0000 </r>
       <r>  -14.6797    1.0000 </r>
       <r>  -14.6777    1.0000 </r>
       <r>  -14.0462    1.0000 </r>
       <r>  -13.9026    1.0000 </r>
       <r>  -13.4224    1.0000 </r>
       <r>  -12.8366    1.0000 </r>
       <r>  -12.7062    1.0000 </r>
       <r>  -12.6946    1.0000 </r>
       <r>  -12.2680    1.0000 </r>
       <r>  -11.9447    1.0000 </r>
       <r>  -11.9426    1.0000 </r>
       <r>  -11.5232    1.0000 </r>
       <r>  -11.3793    1.0000 </r>
       <r>  -11.3769    1.0000 </r>
       <r>  -11.0106    1.0000 </r>
       <r>  -10.4665    1.0000 </r>
       <r>  -10.4661    1.0000 </r>
       <r>  -10.4597    1.0000 </r>
       <r>  -10.0904    1.0000 </r>
       <r>  -10.0720    1.0000 </r>
       <r>  -10.0655    1.0000 </r>
       <r>   -9.7114    1.0000 </r>
       <r>   -9.6774    1.0000 </r>
       <r>   -9.6628    1.0000 </r>
       <r>   -9.6567    1.0000 </r>
       <r>   -9.2854    1.0000 </r>
       <r>   -9.2841    1.0000 </r>
       <r>   -9.1023    1.0000 </r>
       <r>   -8.8463    1.0000 </r>
       <r>   -8.8440    1.0000 </r>
       <r>   -8.7560    1.0000 </r>
       <r>   -8.3577    1.0000 </r>
       <r>   -8.2500    1.0000 </r>
       <r>   -8.2493    1.0000 </r>
       <r>   -8.0511    1.0000 </r>
       <r>   -8.0482    1.0000 </r>
       <r>   -7.9961    1.0000 </r>
       <r>   -7.8938    1.0000 </r>
       <r>   -7.8902    1.0000 </r>
       <r>   -7.8869    1.0000 </r>
       <r>   -7.5767    1.0000 </r>
       <r>   -7.5754    1.0000 </r>
       <r>   -6.3132    1.0000 </r>
       <r>   -6.3125    1.0000 </r>
       <r>   -6.0791    1.0000 </r>
       <r>   -6.0761    1.0000 </r>
       <r>   -5.9462    1.0000 </r>
       <r>   -5.6943    1.0000 </r>
       <r>   -5.6937    1.0000 </r>
       <r>   -5.3130    1.0000 </r>
       <r>   -5.3124    1.0000 </r>
       <r>   -5.2516    1.0000 </r>
       <r>   -2.6519    0.0000 </r>
       <r>   -2.6508    0.0000 </r>
       <r>   -2.0054    0.0000 </r>
       <r>   -2.0054    0.0000 </r>
       <r>   -1.1928    0.0000 </r>
       <r>   -1.1537    0.0000 </r>
       <r>   -1.1525    0.0000 </r>
       <r>   -0.8739    0.0000 </r>
       <r>   -0.6004    0.0000 </r>
       <r>   -0.6004    0.0000 </r>
       <r>   -0.5070    0.0000 </r>
       <r>   -0.0766    0.0000 </r>
       <r>    0.3174    0.0000 </r>
       <r>    0.6367    0.0000 </r>
       <r>    0.7718    0.0000 </r>
       <r>    0.7727    0.0000 </r>
       <r>    0.8016    0.0000 </r>
       <r>    0.8306    0.0000 </r>
       <r>    0.8313    0.0000 </r>
       <r>    0.8916    0.0000 </r>
       <r>    1.1657    0.0000 </r>
       <r>    1.1659    0.0000 </r>
       <r>    1.2280    0.0000 </r>
       <r>    1.4238    0.0000 </r>
       <r>    1.4580    0.0000 </r>
       <r>    1.4671    0.0000 </r>
       <r>    1.6231    0.0000 </r>
       <r>    1.7181    0.0000 </r>
       <r>    1.7234    0.0000 </r>
       <r>    1.7398    0.0000 </r>
       <r>    1.7955    0.0000 </r>
       <r>    1.8165    0.0000 </r>
       <r>    1.8241    0.0000 </r>
       <r>    1.8375    0.0000 </r>
      </set>
      <set comment="kpoint 3">
       <r>  -26.4813    1.0000 </r>
       <r>  -26.4573    1.0000 </r>
       <r>  -26.4572    1.0000 </r>
       <r>  -25.7562    1.0000 </r>
       <r>  -25.2960    1.0000 </r>
       <r>  -22.7634    1.0000 </r>
       <r>  -22.7606    1.0000 </r>
       <r>  -22.3154    1.0000 </r>
       <r>  -22.3151    1.0000 </r>
       <r>  -21.0463    1.0000 </r>
       <r>  -20.9918    1.0000 </r>
       <r>  -20.9917    1.0000 </r>
       <r>  -19.1498    1.0000 </r>
       <r>  -19.1478    1.0000 </r>
       <r>  -18.7372    1.0000 </r>
       <r>  -18.1870    1.0000 </r>
       <r>  -18.1867    1.0000 </r>
       <r>  -18.1722    1.0000 </r>
       <r>  -17.4814    1.0000 </r>
       <r>  -17.4754    1.0000 </r>
       <r>  -15.9921    1.0000 </r>
       <r>  -15.8281    1.0000 </r>
       <r>  -15.7598    1.0000 </r>
       <r>  -14.8827    1.0000 </r>
       <r>  -14.8589    1.0000 </r>
       <r>  -14.8588    1.0000 </r>
       <r>  -14.6797    1.0000 </r>
       <r>  -14.6793    1.0000 </r>
       <r>  -14.0440    1.0000 </r>
       <r>  -13.9026    1.0000 </r>
       <r>  -13.4224    1.0000 </r>
       <r>  -12.8711    1.0000 </r>
       <r>  -12.7063    1.0000 </r>
       <r>  -12.6674    1.0000 </r>
       <r>  -12.2625    1.0000 </r>
       <r>  -11.9447    1.0000 </r>
       <r>  -11.9416    1.0000 </r>
       <r>  -11.5226    1.0000 </r>
       <r>  -11.3811    1.0000 </r>
       <r>  -11.3769    1.0000 </r>
       <r>  -11.0078    1.0000 </r>
       <r>  -10.4694    1.0000 </r>
       <r>  -10.4659    1.0000 </r>
       <r>  -10.4603    1.0000 </r>
       <r>  -10.1035    1.0000 </r>
       <r>  -10.0713    1.0000 </r>
       <r>  -10.0570    1.0000 </r>
       <r>   -9.7220    1.0000 </r>
       <r>   -9.6780    1.0000 </r>
       <r>   -9.6635    1.0000 </r>
       <r>   -9.6415    1.0000 </r>
       <r>   -9.2851    1.0000 </r>
       <r>   -9.2841    1.0000 </r>
       <r>   -9.1022    1.0000 </r>
       <r>   -8.8484    1.0000 </r>
       <r>   -8.8459    1.0000 </r>
       <r>   -8.7518    1.0000 </r>
       <r>   -8.3611    1.0000 </r>
       <r>   -8.2511    1.0000 </r>
       <r>   -8.2473    1.0000 </r>
       <r>   -8.0498    1.0000 </r>
       <r>   -8.0491    1.0000 </r>
       <r>   -7.9947    1.0000 </r>
       <r>   -7.8945    1.0000 </r>
       <r>   -7.8902    1.0000 </r>
       <r>   -7.8861    1.0000 </r>
       <r>   -7.5767    1.0000 </r>
       <r>   -7.5754    1.0000 </r>
       <r>   -6.3131    1.0000 </r>
       <r>   -6.3131    1.0000 </r>
       <r>   -6.0792    1.0000 </r>
       <r>   -6.0757    1.0000 </r>
       <r>   -5.9465    1.0000 </r>
       <r>   -5.6942    1.0000 </r>
       <r>   -5.6937    1.0000 </r>
       <r>   -5.3130    1.0000 </r>
       <r>   -5.3123    1.0000 </r>
       <r>   -5.2518    1.0000 </r>
       <r>   -2.6519    0.0000 </r>
       <r>   -2.6509    0.0000 </r>
       <r>   -2.0054    0.0000 </r>
       <r>   -2.0053    0.0000 </r>
       <r>   -1.1927    0.0000 </r>
       <r>   -1.1535    0.0000 </r>
       <r>   -1.1510    0.0000 </r>
       <r>   -0.8747    0.0000 </r>
       <r>   -0.6005    0.0000 </r>
       <r>   -0.6004    0.0000 </r>
       <r>   -0.5081    0.0000 </r>
       <r>   -0.0751    0.0000 </r>
       <r>    0.3161    0.0000 </r>
       <r>    0.6277    0.0000 </r>
       <r>    0.7689    0.0000 </r>
       <r>    0.7739    0.0000 </r>
       <r>    0.8017    0.0000 </r>
       <r>    0.8308    0.0000 </r>
       <r>    0.8377    0.0000 </r>
       <r>    0.8946    0.0000 </r>
       <r>    1.1698    0.0000 </r>
       <r>    1.1704    0.0000 </r>
       <r>    1.2272    0.0000 </r>
       <r>    1.4090    0.0000 </r>
       <r>    1.4612    0.0000 </r>
       <r>    1.4820    0.0000 </r>
       <r>    1.6141    0.0000 </r>
       <r>    1.6966    0.0000 </r>
       <r>    1.7140    0.0000 </r>
       <r>    1.7429    0.0000 </r>
       <r>    1.7953    0.0000 </r>
       <r>    1.8171    0.0000 </r>
       <r>    1.8315    0.0000 </r>
       <r>    1.8600    0.0000 </r>
      </set>
      <set comment="kpoint 4">
       <r>  -26.4813    1.0000 </r>
       <r>  -26.4573    1.0000 </r>
       <r>  -26.4571    1.0000 </r>
       <r>  -25.7562    1.0000 </r>
       <r>  -25.2960    1.0000 </r>
       <r>  -22.7634    1.0000 </r>
       <r>  -22.7605    1.0000 </r>
       <r>  -22.3155    1.0000 </r>
       <r>  -22.3151    1.0000 </r>
       <r>  -21.0460    1.0000 </r>
       <r>  -20.9919    1.0000 </r>
       <r>  -20.9918    1.0000 </r>
       <r>  -19.1498    1.0000 </r>
       <r>  -19.1458    1.0000 </r>
       <r>  -18.7415    1.0000 </r>
       <r>  -18.1870    1.0000 </r>
       <r>  -18.1867    1.0000 </r>
       <r>  -18.1726    1.0000 </r>
       <r>  -17.4814    1.0000 </r>
       <r>  -17.4668    1.0000 </r>
       <r>  -16.0421    1.0000 </r>
       <r>  -15.8280    1.0000 </r>
       <r>  -15.7109    1.0000 </r>
       <r>  -14.8823    1.0000 </r>
       <r>  -14.8593    1.0000 </r>
       <r>  -14.8589    1.0000 </r>
       <r>  -14.6819    1.0000 </r>
       <r>  -14.6797    1.0000 </r>
       <r>  -14.0405    1.0000 </r>
       <r>  -13.9025    1.0000 </r>
       <r>  -13.4224    1.0000 </r>
       <r>  -12.9131    1.0000 </r>
       <r>  -12.7063    1.0000 </r>
       <r>  -12.6377    1.0000 </r>
       <r>  -12.2534    1.0000 </r>
       <r>  -11.9448    1.0000 </r>
       <r>  -11.9398    1.0000 </r>
       <r>  -11.5217    1.0000 </r>
       <r>  -11.3838    1.0000 </r>
       <r>  -11.3769    1.0000 </r>
       <r>  -11.0033    1.0000 </r>
       <r>  -10.4745    1.0000 </r>
       <r>  -10.4654    1.0000 </r>
       <r>  -10.4612    1.0000 </r>
       <r>  -10.1176    1.0000 </r>
       <r>  -10.0702    1.0000 </r>
       <r>  -10.0499    1.0000 </r>
       <r>   -9.7331    1.0000 </r>
       <r>   -9.6792    1.0000 </r>
       <r>   -9.6646    1.0000 </r>
       <r>   -9.6229    1.0000 </r>
       <r>   -9.2846    1.0000 </r>
       <r>   -9.2841    1.0000 </r>
       <r>   -9.1020    1.0000 </r>
       <r>   -8.8549    1.0000 </r>
       <r>   -8.8453    1.0000 </r>
       <r>   -8.7455    1.0000 </r>
       <r>   -8.3664    1.0000 </r>
       <r>   -8.2529    1.0000 </r>
       <r>   -8.2441    1.0000 </r>
       <r>   -8.0506    1.0000 </r>
       <r>   -8.0477    1.0000 </r>
       <r>   -7.9924    1.0000 </r>
       <r>   -7.8955    1.0000 </r>
       <r>   -7.8901    1.0000 </r>
       <r>   -7.8850    1.0000 </r>
       <r>   -7.5767    1.0000 </r>
       <r>   -7.5754    1.0000 </r>
       <r>   -6.3140    1.0000 </r>
       <r>   -6.3128    1.0000 </r>
       <r>   -6.0793    1.0000 </r>
       <r>   -6.0751    1.0000 </r>
       <r>   -5.9470    1.0000 </r>
       <r>   -5.6941    1.0000 </r>
       <r>   -5.6938    1.0000 </r>
       <r>   -5.3130    1.0000 </r>
       <r>   -5.3122    1.0000 </r>
       <r>   -5.2521    1.0000 </r>
       <r>   -2.6520    0.0000 </r>
       <r>   -2.6509    0.0000 </r>
       <r>   -2.0055    0.0000 </r>
       <r>   -2.0051    0.0000 </r>
       <r>   -1.1925    0.0000 </r>
       <r>   -1.1533    0.0000 </r>
       <r>   -1.1484    0.0000 </r>
       <r>   -0.8760    0.0000 </r>
       <r>   -0.6007    0.0000 </r>
       <r>   -0.6004    0.0000 </r>
       <r>   -0.5099    0.0000 </r>
       <r>   -0.0726    0.0000 </r>
       <r>    0.3139    0.0000 </r>
       <r>    0.6149    0.0000 </r>
       <r>    0.7643    0.0000 </r>
       <r>    0.7722    0.0000 </r>
       <r>    0.8041    0.0000 </r>
       <r>    0.8309    0.0000 </r>
       <r>    0.8479    0.0000 </r>
       <r>    0.8994    0.0000 </r>
       <r>    1.1763    0.0000 </r>
       <r>    1.1780    0.0000 </r>
       <r>    1.2258    0.0000 </r>
       <r>    1.3948    0.0000 </r>
       <r>    1.4662    0.0000 </r>
       <r>    1.4951    0.0000 </r>
       <r>    1.6009    0.0000 </r>
       <r>    1.6736    0.0000 </r>
       <r>    1.7015    0.0000 </r>
       <r>    1.7468    0.0000 </r>
       <r>    1.7956    0.0000 </r>
       <r>    1.8205    0.0000 </r>
       <r>    1.8401    0.0000 </r>
       <r>    1.8859    0.0000 </r>
      </set>
      <set comment="kpoint 5">
       <r>  -26.4813    1.0000 </r>
       <r>  -26.4573    1.0000 </r>
       <r>  -26.4572    1.0000 </r>
       <r>  -25.7562    1.0000 </r>
       <r>  -25.2960    1.0000 </r>
       <r>  -22.7634    1.0000 </r>
       <r>  -22.7605    1.0000 </r>
       <r>  -22.3156    1.0000 </r>
       <r>  -22.3151    1.0000 </r>
       <r>  -21.0456    1.0000 </r>
       <r>  -20.9922    1.0000 </r>
       <r>  -20.9918    1.0000 </r>
       <r>  -19.1498    1.0000 </r>
       <r>  -19.1430    1.0000 </r>
       <r>  -18.7475    1.0000 </r>
       <r>  -18.1871    1.0000 </r>
       <r>  -18.1867    1.0000 </r>
       <r>  -18.1730    1.0000 </r>
       <r>  -17.4814    1.0000 </r>
       <r>  -17.4549    1.0000 </r>
       <r>  -16.0936    1.0000 </r>
       <r>  -15.8280    1.0000 </r>
       <r>  -15.6610    1.0000 </r>
       <r>  -14.8817    1.0000 </r>
       <r>  -14.8602    1.0000 </r>
       <r>  -14.8589    1.0000 </r>
       <r>  -14.6857    1.0000 </r>
       <r>  -14.6797    1.0000 </r>
       <r>  -14.0355    1.0000 </r>
       <r>  -13.9025    1.0000 </r>
       <r>  -13.4224    1.0000 </r>
       <r>  -12.9584    1.0000 </r>
       <r>  -12.7064    1.0000 </r>
       <r>  -12.6095    1.0000 </r>
       <r>  -12.2410    1.0000 </r>
       <r>  -11.9448    1.0000 </r>
       <r>  -11.9372    1.0000 </r>
       <r>  -11.5207    1.0000 </r>
       <r>  -11.3872    1.0000 </r>
       <r>  -11.3768    1.0000 </r>
       <r>  -10.9973    1.0000 </r>
       <r>  -10.4819    1.0000 </r>
       <r>  -10.4647    1.0000 </r>
       <r>  -10.4624    1.0000 </r>
       <r>  -10.1322    1.0000 </r>
       <r>  -10.0686    1.0000 </r>
       <r>  -10.0447    1.0000 </r>
       <r>   -9.7434    1.0000 </r>
       <r>   -9.6812    1.0000 </r>
       <r>   -9.6657    1.0000 </r>
       <r>   -9.6024    1.0000 </r>
       <r>   -9.2841    1.0000 </r>
       <r>   -9.2838    1.0000 </r>
       <r>   -9.1018    1.0000 </r>
       <r>   -8.8630    1.0000 </r>
       <r>   -8.8444    1.0000 </r>
       <r>   -8.7378    1.0000 </r>
       <r>   -8.3733    1.0000 </r>
       <r>   -8.2553    1.0000 </r>
       <r>   -8.2403    1.0000 </r>
       <r>   -8.0524    1.0000 </r>
       <r>   -8.0450    1.0000 </r>
       <r>   -7.9895    1.0000 </r>
       <r>   -7.8967    1.0000 </r>
       <r>   -7.8899    1.0000 </r>
       <r>   -7.8838    1.0000 </r>
       <r>   -7.5767    1.0000 </r>
       <r>   -7.5755    1.0000 </r>
       <r>   -6.3153    1.0000 </r>
       <r>   -6.3124    1.0000 </r>
       <r>   -6.0795    1.0000 </r>
       <r>   -6.0742    1.0000 </r>
       <r>   -5.9477    1.0000 </r>
       <r>   -5.6940    1.0000 </r>
       <r>   -5.6939    1.0000 </r>
       <r>   -5.3130    1.0000 </r>
       <r>   -5.3119    1.0000 </r>
       <r>   -5.2525    1.0000 </r>
       <r>   -2.6521    0.0000 </r>
       <r>   -2.6511    0.0000 </r>
       <r>   -2.0056    0.0000 </r>
       <r>   -2.0048    0.0000 </r>
       <r>   -1.1922    0.0000 </r>
       <r>   -1.1530    0.0000 </r>
       <r>   -1.1449    0.0000 </r>
       <r>   -0.8778    0.0000 </r>
       <r>   -0.6009    0.0000 </r>
       <r>   -0.6004    0.0000 </r>
       <r>   -0.5124    0.0000 </r>
       <r>   -0.0692    0.0000 </r>
       <r>    0.3108    0.0000 </r>
       <r>    0.6002    0.0000 </r>
       <r>    0.7585    0.0000 </r>
       <r>    0.7671    0.0000 </r>
       <r>    0.8084    0.0000 </r>
       <r>    0.8307    0.0000 </r>
       <r>    0.8612    0.0000 </r>
       <r>    0.9057    0.0000 </r>
       <r>    1.1851    0.0000 </r>
       <r>    1.1885    0.0000 </r>
       <r>    1.2236    0.0000 </r>
       <r>    1.3824    0.0000 </r>
       <r>    1.4731    0.0000 </r>
       <r>    1.5016    0.0000 </r>
       <r>    1.5871    0.0000 </r>
       <r>    1.6544    0.0000 </r>
       <r>    1.6878    0.0000 </r>
       <r>    1.7498    0.0000 </r>
       <r>    1.7959    0.0000 </r>
       <r>    1.8253    0.0000 </r>
       <r>    1.8474    0.0000 </r>
       <r>    1.9120    0.0000 </r>
      </set>
      <set comment="kpoint 6">
       <r>  -26.4813    1.0000 </r>
       <r>  -26.4573    1.0000 </r>
       <r>  -26.4572    1.0000 </r>
       <r>  -25.7562    1.0000 </r>
       <r>  -25.2960    1.0000 </r>
       <r>  -22.7634    1.0000 </r>
       <r>  -22.7604    1.0000 </r>
       <r>  -22.3157    1.0000 </r>
       <r>  -22.3151    1.0000 </r>
       <r>  -21.0451    1.0000 </r>
       <r>  -20.9926    1.0000 </r>
       <r>  -20.9918    1.0000 </r>
       <r>  -19.1498    1.0000 </r>
       <r>  -19.1394    1.0000 </r>
       <r>  -18.7549    1.0000 </r>
       <r>  -18.1871    1.0000 </r>
       <r>  -18.1867    1.0000 </r>
       <r>  -18.1736    1.0000 </r>
       <r>  -17.4814    1.0000 </r>
       <r>  -17.4399    1.0000 </r>
       <r>  -16.1454    1.0000 </r>
       <r>  -15.8279    1.0000 </r>
       <r>  -15.6113    1.0000 </r>
       <r>  -14.8810    1.0000 </r>
       <r>  -14.8612    1.0000 </r>
       <r>  -14.8589    1.0000 </r>
       <r>  -14.6904    1.0000 </r>
       <r>  -14.6798    1.0000 </r>
       <r>  -14.0291    1.0000 </r>
       <r>  -13.9025    1.0000 </r>
       <r>  -13.4224    1.0000 </r>
       <r>  -13.0054    1.0000 </r>
       <r>  -12.7066    1.0000 </r>
       <r>  -12.5843    1.0000 </r>
       <r>  -12.2256    1.0000 </r>
       <r>  -11.9449    1.0000 </r>
       <r>  -11.9335    1.0000 </r>
       <r>  -11.5196    1.0000 </r>
       <r>  -11.3907    1.0000 </r>
       <r>  -11.3768    1.0000 </r>
       <r>  -10.9901    1.0000 </r>
       <r>  -10.4915    1.0000 </r>
       <r>  -10.4640    1.0000 </r>
       <r>  -10.4638    1.0000 </r>
       <r>  -10.1468    1.0000 </r>
       <r>  -10.0666    1.0000 </r>
       <r>  -10.0413    1.0000 </r>
       <r>   -9.7524    1.0000 </r>
       <r>   -9.6839    1.0000 </r>
       <r>   -9.6668    1.0000 </r>
       <r>   -9.5810    1.0000 </r>
       <r>   -9.2841    1.0000 </r>
       <r>   -9.2828    1.0000 </r>
       <r>   -9.1015    1.0000 </r>
       <r>   -8.8722    1.0000 </r>
       <r>   -8.8433    1.0000 </r>
       <r>   -8.7290    1.0000 </r>
       <r>   -8.3815    1.0000 </r>
       <r>   -8.2582    1.0000 </r>
       <r>   -8.2359    1.0000 </r>
       <r>   -8.0545    1.0000 </r>
       <r>   -8.0416    1.0000 </r>
       <r>   -7.9860    1.0000 </r>
       <r>   -7.8978    1.0000 </r>
       <r>   -7.8898    1.0000 </r>
       <r>   -7.8825    1.0000 </r>
       <r>   -7.5767    1.0000 </r>
       <r>   -7.5755    1.0000 </r>
       <r>   -6.3169    1.0000 </r>
       <r>   -6.3119    1.0000 </r>
       <r>   -6.0798    1.0000 </r>
       <r>   -6.0731    1.0000 </r>
       <r>   -5.9485    1.0000 </r>
       <r>   -5.6940    1.0000 </r>
       <r>   -5.6938    1.0000 </r>
       <r>   -5.3130    1.0000 </r>
       <r>   -5.3117    1.0000 </r>
       <r>   -5.2530    1.0000 </r>
       <r>   -2.6522    0.0000 </r>
       <r>   -2.6512    0.0000 </r>
       <r>   -2.0058    0.0000 </r>
       <r>   -2.0045    0.0000 </r>
       <r>   -1.1919    0.0000 </r>
       <r>   -1.1527    0.0000 </r>
       <r>   -1.1405    0.0000 </r>
       <r>   -0.8802    0.0000 </r>
       <r>   -0.6012    0.0000 </r>
       <r>   -0.6004    0.0000 </r>
       <r>   -0.5155    0.0000 </r>
       <r>   -0.0648    0.0000 </r>
       <r>    0.3065    0.0000 </r>
       <r>    0.5850    0.0000 </r>
       <r>    0.7519    0.0000 </r>
       <r>    0.7598    0.0000 </r>
       <r>    0.8138    0.0000 </r>
       <r>    0.8301    0.0000 </r>
       <r>    0.8762    0.0000 </r>
       <r>    0.9137    0.0000 </r>
       <r>    1.1959    0.0000 </r>
       <r>    1.2015    0.0000 </r>
       <r>    1.2207    0.0000 </r>
       <r>    1.3726    0.0000 </r>
       <r>    1.4816    0.0000 </r>
       <r>    1.4961    0.0000 </r>
       <r>    1.5772    0.0000 </r>
       <r>    1.6415    0.0000 </r>
       <r>    1.6741    0.0000 </r>
       <r>    1.7502    0.0000 </r>
       <r>    1.7968    0.0000 </r>
       <r>    1.8306    0.0000 </r>
       <r>    1.8525    0.0000 </r>
       <r>    1.9310    0.0000 </r>
      </set>
      <set comment="kpoint 7">
       <r>  -26.4813    1.0000 </r>
       <r>  -26.4573    1.0000 </r>
       <r>  -26.4572    1.0000 </r>
       <r>  -25.7562    1.0000 </r>
       <r>  -25.2960    1.0000 </r>
       <r>  -22.7634    1.0000 </r>
       <r>  -22.7604    1.0000 </r>
       <r>  -22.3159    1.0000 </r>
       <r>  -22.3151    1.0000 </r>
       <r>  -21.0445    1.0000 </r>
       <r>  -20.9930    1.0000 </r>
       <r>  -20.9918    1.0000 </r>
       <r>  -19.1498    1.0000 </r>
       <r>  -19.1351    1.0000 </r>
       <r>  -18.7637    1.0000 </r>
       <r>  -18.1872    1.0000 </r>
       <r>  -18.1867    1.0000 </r>
       <r>  -18.1741    1.0000 </r>
       <r>  -17.4815    1.0000 </r>
       <r>  -17.4220    1.0000 </r>
       <r>  -16.1971    1.0000 </r>
       <r>  -15.8279    1.0000 </r>
       <r>  -15.5622    1.0000 </r>
       <r>  -14.8801    1.0000 </r>
       <r>  -14.8626    1.0000 </r>
       <r>  -14.8589    1.0000 </r>
       <r>  -14.6962    1.0000 </r>
       <r>  -14.6798    1.0000 </r>
       <r>  -14.0212    1.0000 </r>
       <r>  -13.9025    1.0000 </r>
       <r>  -13.4224    1.0000 </r>
       <r>  -13.0531    1.0000 </r>
       <r>  -12.7067    1.0000 </r>
       <r>  -12.5626    1.0000 </r>
       <r>  -12.2079    1.0000 </r>
       <r>  -11.9450    1.0000 </r>
       <r>  -11.9287    1.0000 </r>
       <r>  -11.5189    1.0000 </r>
       <r>  -11.3938    1.0000 </r>
       <r>  -11.3768    1.0000 </r>
       <r>  -10.9821    1.0000 </r>
       <r>  -10.5032    1.0000 </r>
       <r>  -10.4654    1.0000 </r>
       <r>  -10.4630    1.0000 </r>
       <r>  -10.1609    1.0000 </r>
       <r>  -10.0641    1.0000 </r>
       <r>  -10.0397    1.0000 </r>
       <r>   -9.7600    1.0000 </r>
       <r>   -9.6876    1.0000 </r>
       <r>   -9.6677    1.0000 </r>
       <r>   -9.5589    1.0000 </r>
       <r>   -9.2841    1.0000 </r>
       <r>   -9.2817    1.0000 </r>
       <r>   -9.1013    1.0000 </r>
       <r>   -8.8821    1.0000 </r>
       <r>   -8.8421    1.0000 </r>
       <r>   -8.7196    1.0000 </r>
       <r>   -8.3907    1.0000 </r>
       <r>   -8.2614    1.0000 </r>
       <r>   -8.2314    1.0000 </r>
       <r>   -8.0567    1.0000 </r>
       <r>   -8.0379    1.0000 </r>
       <r>   -7.9821    1.0000 </r>
       <r>   -7.8990    1.0000 </r>
       <r>   -7.8896    1.0000 </r>
       <r>   -7.8812    1.0000 </r>
       <r>   -7.5766    1.0000 </r>
       <r>   -7.5755    1.0000 </r>
       <r>   -6.3188    1.0000 </r>
       <r>   -6.3114    1.0000 </r>
       <r>   -6.0801    1.0000 </r>
       <r>   -6.0719    1.0000 </r>
       <r>   -5.9495    1.0000 </r>
       <r>   -5.6941    1.0000 </r>
       <r>   -5.6936    1.0000 </r>
       <r>   -5.3130    1.0000 </r>
       <r>   -5.3113    1.0000 </r>
       <r>   -5.2536    1.0000 </r>
       <r>   -2.6524    0.0000 </r>
       <r>   -2.6514    0.0000 </r>
       <r>   -2.0060    0.0000 </r>
       <r>   -2.0042    0.0000 </r>
       <r>   -1.1915    0.0000 </r>
       <r>   -1.1522    0.0000 </r>
       <r>   -1.1352    0.0000 </r>
       <r>   -0.8831    0.0000 </r>
       <r>   -0.6015    0.0000 </r>
       <r>   -0.6003    0.0000 </r>
       <r>   -0.5191    0.0000 </r>
       <r>   -0.0595    0.0000 </r>
       <r>    0.3011    0.0000 </r>
       <r>    0.5700    0.0000 </r>
       <r>    0.7448    0.0000 </r>
       <r>    0.7513    0.0000 </r>
       <r>    0.8196    0.0000 </r>
       <r>    0.8291    0.0000 </r>
       <r>    0.8916    0.0000 </r>
       <r>    0.9233    0.0000 </r>
       <r>    1.2075    0.0000 </r>
       <r>    1.2169    0.0000 </r>
       <r>    1.2179    0.0000 </r>
       <r>    1.3654    0.0000 </r>
       <r>    1.4782    0.0000 </r>
       <r>    1.4914    0.0000 </r>
       <r>    1.5709    0.0000 </r>
       <r>    1.6371    0.0000 </r>
       <r>    1.6610    0.0000 </r>
       <r>    1.7470    0.0000 </r>
       <r>    1.7992    0.0000 </r>
       <r>    1.8352    0.0000 </r>
       <r>    1.8553    0.0000 </r>
       <r>    1.9410    0.0000 </r>
      </set>
      <set comment="kpoint 8">
       <r>  -26.4813    1.0000 </r>
       <r>  -26.4573    1.0000 </r>
       <r>  -26.4572    1.0000 </r>
       <r>  -25.7562    1.0000 </r>
       <r>  -25.2960    1.0000 </r>
       <r>  -22.7634    1.0000 </r>
       <r>  -22.7603    1.0000 </r>
       <r>  -22.3160    1.0000 </r>
       <r>  -22.3151    1.0000 </r>
       <r>  -21.0438    1.0000 </r>
       <r>  -20.9935    1.0000 </r>
       <r>  -20.9918    1.0000 </r>
       <r>  -19.1498    1.0000 </r>
       <r>  -19.1300    1.0000 </r>
       <r>  -18.7736    1.0000 </r>
       <r>  -18.1873    1.0000 </r>
       <r>  -18.1867    1.0000 </r>
       <r>  -18.1748    1.0000 </r>
       <r>  -17.4815    1.0000 </r>
       <r>  -17.4016    1.0000 </r>
       <r>  -16.2485    1.0000 </r>
       <r>  -15.8278    1.0000 </r>
       <r>  -15.5139    1.0000 </r>
       <r>  -14.8791    1.0000 </r>
       <r>  -14.8642    1.0000 </r>
       <r>  -14.8589    1.0000 </r>
       <r>  -14.7029    1.0000 </r>
       <r>  -14.6798    1.0000 </r>
       <r>  -14.0120    1.0000 </r>
       <r>  -13.9025    1.0000 </r>
       <r>  -13.4225    1.0000 </r>
       <r>  -13.1010    1.0000 </r>
       <r>  -12.7069    1.0000 </r>
       <r>  -12.5444    1.0000 </r>
       <r>  -12.1888    1.0000 </r>
       <r>  -11.9451    1.0000 </r>
       <r>  -11.9223    1.0000 </r>
       <r>  -11.5189    1.0000 </r>
       <r>  -11.3959    1.0000 </r>
       <r>  -11.3767    1.0000 </r>
       <r>  -10.9736    1.0000 </r>
       <r>  -10.5170    1.0000 </r>
       <r>  -10.4673    1.0000 </r>
       <r>  -10.4620    1.0000 </r>
       <r>  -10.1741    1.0000 </r>
       <r>  -10.0614    1.0000 </r>
       <r>  -10.0395    1.0000 </r>
       <r>   -9.7663    1.0000 </r>
       <r>   -9.6921    1.0000 </r>
       <r>   -9.6683    1.0000 </r>
       <r>   -9.5366    1.0000 </r>
       <r>   -9.2840    1.0000 </r>
       <r>   -9.2803    1.0000 </r>
       <r>   -9.1011    1.0000 </r>
       <r>   -8.8924    1.0000 </r>
       <r>   -8.8407    1.0000 </r>
       <r>   -8.7096    1.0000 </r>
       <r>   -8.4006    1.0000 </r>
       <r>   -8.2649    1.0000 </r>
       <r>   -8.2269    1.0000 </r>
       <r>   -8.0590    1.0000 </r>
       <r>   -8.0338    1.0000 </r>
       <r>   -7.9779    1.0000 </r>
       <r>   -7.9002    1.0000 </r>
       <r>   -7.8894    1.0000 </r>
       <r>   -7.8799    1.0000 </r>
       <r>   -7.5766    1.0000 </r>
       <r>   -7.5756    1.0000 </r>
       <r>   -6.3208    1.0000 </r>
       <r>   -6.3108    1.0000 </r>
       <r>   -6.0804    1.0000 </r>
       <r>   -6.0706    1.0000 </r>
       <r>   -5.9506    1.0000 </r>
       <r>   -5.6942    1.0000 </r>
       <r>   -5.6933    1.0000 </r>
       <r>   -5.3131    1.0000 </r>
       <r>   -5.3109    1.0000 </r>
       <r>   -5.2543    1.0000 </r>
       <r>   -2.6526    0.0000 </r>
       <r>   -2.6516    0.0000 </r>
       <r>   -2.0062    0.0000 </r>
       <r>   -2.0038    0.0000 </r>
       <r>   -1.1910    0.0000 </r>
       <r>   -1.1517    0.0000 </r>
       <r>   -1.1291    0.0000 </r>
       <r>   -0.8865    0.0000 </r>
       <r>   -0.6019    0.0000 </r>
       <r>   -0.6002    0.0000 </r>
       <r>   -0.5232    0.0000 </r>
       <r>   -0.0533    0.0000 </r>
       <r>    0.2942    0.0000 </r>
       <r>    0.5561    0.0000 </r>
       <r>    0.7375    0.0000 </r>
       <r>    0.7420    0.0000 </r>
       <r>    0.8258    0.0000 </r>
       <r>    0.8275    0.0000 </r>
       <r>    0.9063    0.0000 </r>
       <r>    0.9346    0.0000 </r>
       <r>    1.2099    0.0000 </r>
       <r>    1.2252    0.0000 </r>
       <r>    1.2344    0.0000 </r>
       <r>    1.3610    0.0000 </r>
       <r>    1.4532    0.0000 </r>
       <r>    1.5020    0.0000 </r>
       <r>    1.5635    0.0000 </r>
       <r>    1.6409    0.0000 </r>
       <r>    1.6490    0.0000 </r>
       <r>    1.7399    0.0000 </r>
       <r>    1.8029    0.0000 </r>
       <r>    1.8382    0.0000 </r>
       <r>    1.8562    0.0000 </r>
       <r>    1.9360    0.0000 </r>
      </set>
      <set comment="kpoint 9">
       <r>  -26.4813    1.0000 </r>
       <r>  -26.4573    1.0000 </r>
       <r>  -26.4572    1.0000 </r>
       <r>  -25.7562    1.0000 </r>
       <r>  -25.2960    1.0000 </r>
       <r>  -22.7634    1.0000 </r>
       <r>  -22.7602    1.0000 </r>
       <r>  -22.3162    1.0000 </r>
       <r>  -22.3151    1.0000 </r>
       <r>  -21.0431    1.0000 </r>
       <r>  -20.9941    1.0000 </r>
       <r>  -20.9918    1.0000 </r>
       <r>  -19.1498    1.0000 </r>
       <r>  -19.1243    1.0000 </r>
       <r>  -18.7845    1.0000 </r>
       <r>  -18.1873    1.0000 </r>
       <r>  -18.1867    1.0000 </r>
       <r>  -18.1754    1.0000 </r>
       <r>  -17.4815    1.0000 </r>
       <r>  -17.3787    1.0000 </r>
       <r>  -16.2993    1.0000 </r>
       <r>  -15.8277    1.0000 </r>
       <r>  -15.4667    1.0000 </r>
       <r>  -14.8779    1.0000 </r>
       <r>  -14.8660    1.0000 </r>
       <r>  -14.8589    1.0000 </r>
       <r>  -14.7107    1.0000 </r>
       <r>  -14.6798    1.0000 </r>
       <r>  -14.0013    1.0000 </r>
       <r>  -13.9025    1.0000 </r>
       <r>  -13.4225    1.0000 </r>
       <r>  -13.1487    1.0000 </r>
       <r>  -12.7070    1.0000 </r>
       <r>  -12.5292    1.0000 </r>
       <r>  -12.1694    1.0000 </r>
       <r>  -11.9452    1.0000 </r>
       <r>  -11.9143    1.0000 </r>
       <r>  -11.5200    1.0000 </r>
       <r>  -11.3964    1.0000 </r>
       <r>  -11.3766    1.0000 </r>
       <r>  -10.9651    1.0000 </r>
       <r>  -10.5326    1.0000 </r>
       <r>  -10.4695    1.0000 </r>
       <r>  -10.4609    1.0000 </r>
       <r>  -10.1862    1.0000 </r>
       <r>  -10.0583    1.0000 </r>
       <r>  -10.0407    1.0000 </r>
       <r>   -9.7715    1.0000 </r>
       <r>   -9.6972    1.0000 </r>
       <r>   -9.6688    1.0000 </r>
       <r>   -9.5144    1.0000 </r>
       <r>   -9.2840    1.0000 </r>
       <r>   -9.2788    1.0000 </r>
       <r>   -9.1010    1.0000 </r>
       <r>   -8.9031    1.0000 </r>
       <r>   -8.8392    1.0000 </r>
       <r>   -8.6993    1.0000 </r>
       <r>   -8.4112    1.0000 </r>
       <r>   -8.2686    1.0000 </r>
       <r>   -8.2225    1.0000 </r>
       <r>   -8.0613    1.0000 </r>
       <r>   -8.0295    1.0000 </r>
       <r>   -7.9737    1.0000 </r>
       <r>   -7.9014    1.0000 </r>
       <r>   -7.8892    1.0000 </r>
       <r>   -7.8786    1.0000 </r>
       <r>   -7.5766    1.0000 </r>
       <r>   -7.5756    1.0000 </r>
       <r>   -6.3230    1.0000 </r>
       <r>   -6.3101    1.0000 </r>
       <r>   -6.0808    1.0000 </r>
       <r>   -6.0691    1.0000 </r>
       <r>   -5.9517    1.0000 </r>
       <r>   -5.6943    1.0000 </r>
       <r>   -5.6931    1.0000 </r>
       <r>   -5.3131    1.0000 </r>
       <r>   -5.3105    1.0000 </r>
       <r>   -5.2550    1.0000 </r>
       <r>   -2.6528    0.0000 </r>
       <r>   -2.6518    0.0000 </r>
       <r>   -2.0064    0.0000 </r>
       <r>   -2.0034    0.0000 </r>
       <r>   -1.1906    0.0000 </r>
       <r>   -1.1512    0.0000 </r>
       <r>   -1.1222    0.0000 </r>
       <r>   -0.8905    0.0000 </r>
       <r>   -0.6022    0.0000 </r>
       <r>   -0.6001    0.0000 </r>
       <r>   -0.5276    0.0000 </r>
       <r>   -0.0462    0.0000 </r>
       <r>    0.2860    0.0000 </r>
       <r>    0.5436    0.0000 </r>
       <r>    0.7303    0.0000 </r>
       <r>    0.7324    0.0000 </r>
       <r>    0.8256    0.0000 </r>
       <r>    0.8325    0.0000 </r>
       <r>    0.9199    0.0000 </r>
       <r>    0.9472    0.0000 </r>
       <r>    1.2055    0.0000 </r>
       <r>    1.2403    0.0000 </r>
       <r>    1.2536    0.0000 </r>
       <r>    1.3586    0.0000 </r>
       <r>    1.4262    0.0000 </r>
       <r>    1.5129    0.0000 </r>
       <r>    1.5544    0.0000 </r>
       <r>    1.6386    0.0000 </r>
       <r>    1.6496    0.0000 </r>
       <r>    1.7297    0.0000 </r>
       <r>    1.8073    0.0000 </r>
       <r>    1.8390    0.0000 </r>
       <r>    1.8555    0.0000 </r>
       <r>    1.9247    0.0000 </r>
      </set>
      <set comment="kpoint 10">
       <r>  -26.4813    1.0000 </r>
       <r>  -26.4573    1.0000 </r>
       <r>  -26.4572    1.0000 </r>
       <r>  -25.7562    1.0000 </r>
       <r>  -25.2960    1.0000 </r>
       <r>  -22.7634    1.0000 </r>
       <r>  -22.7601    1.0000 </r>
       <r>  -22.3164    1.0000 </r>
       <r>  -22.3150    1.0000 </r>
       <r>  -21.0423    1.0000 </r>
       <r>  -20.9947    1.0000 </r>
       <r>  -20.9918    1.0000 </r>
       <r>  -19.1498    1.0000 </r>
       <r>  -19.1181    1.0000 </r>
       <r>  -18.7960    1.0000 </r>
       <r>  -18.1874    1.0000 </r>
       <r>  -18.1867    1.0000 </r>
       <r>  -18.1760    1.0000 </r>
       <r>  -17.4816    1.0000 </r>
       <r>  -17.3538    1.0000 </r>
       <r>  -16.3493    1.0000 </r>
       <r>  -15.8277    1.0000 </r>
       <r>  -15.4210    1.0000 </r>
       <r>  -14.8767    1.0000 </r>
       <r>  -14.8682    1.0000 </r>
       <r>  -14.8589    1.0000 </r>
       <r>  -14.7193    1.0000 </r>
       <r>  -14.6798    1.0000 </r>
       <r>  -13.9894    1.0000 </r>
       <r>  -13.9025    1.0000 </r>
       <r>  -13.4225    1.0000 </r>
       <r>  -13.1958    1.0000 </r>
       <r>  -12.7072    1.0000 </r>
       <r>  -12.5168    1.0000 </r>
       <r>  -12.1507    1.0000 </r>
       <r>  -11.9453    1.0000 </r>
       <r>  -11.9045    1.0000 </r>
       <r>  -11.5223    1.0000 </r>
       <r>  -11.3947    1.0000 </r>
       <r>  -11.3766    1.0000 </r>
       <r>  -10.9570    1.0000 </r>
       <r>  -10.5496    1.0000 </r>
       <r>  -10.4718    1.0000 </r>
       <r>  -10.4598    1.0000 </r>
       <r>  -10.1970    1.0000 </r>
       <r>  -10.0550    1.0000 </r>
       <r>  -10.0429    1.0000 </r>
       <r>   -9.7756    1.0000 </r>
       <r>   -9.7028    1.0000 </r>
       <r>   -9.6692    1.0000 </r>
       <r>   -9.4925    1.0000 </r>
       <r>   -9.2840    1.0000 </r>
       <r>   -9.2770    1.0000 </r>
       <r>   -9.1011    1.0000 </r>
       <r>   -8.9138    1.0000 </r>
       <r>   -8.8377    1.0000 </r>
       <r>   -8.6887    1.0000 </r>
       <r>   -8.4221    1.0000 </r>
       <r>   -8.2723    1.0000 </r>
[...]
       <r>   -2.6508    0.0000 </r>
       <r>   -2.0054    0.0000 </r>
       <r>   -2.0053    0.0000 </r>
       <r>   -1.1929    0.0000 </r>
       <r>   -1.1537    0.0000 </r>
       <r>   -1.1530    0.0000 </r>
       <r>   -0.8737    0.0000 </r>
       <r>   -0.6004    0.0000 </r>
       <r>   -0.6004    0.0000 </r>
       <r>   -0.5066    0.0000 </r>
       <r>   -0.0771    0.0000 </r>
       <r>    0.3178    0.0000 </r>
       <r>    0.6400    0.0000 </r>
       <r>    0.7717    0.0000 </r>
       <r>    0.7728    0.0000 </r>
       <r>    0.8019    0.0000 </r>
       <r>    0.8291    0.0000 </r>
       <r>    0.8306    0.0000 </r>
       <r>    0.8906    0.0000 </r>
       <r>    1.1642    0.0000 </r>
       <r>    1.1646    0.0000 </r>
       <r>    1.2282    0.0000 </r>
       <r>    1.4328    0.0000 </r>
       <r>    1.4570    0.0000 </r>
       <r>    1.4579    0.0000 </r>
       <r>    1.6264    0.0000 </r>
       <r>    1.7269    0.0000 </r>
       <r>    1.7277    0.0000 </r>
       <r>    1.7387    0.0000 </r>
       <r>    1.7954    0.0000 </r>
       <r>    1.8182    0.0000 </r>
       <r>    1.8202    0.0000 </r>
       <r>    1.8239    0.0000 </r>
      </set>
     </set>
    </set>
   </array>
  </eigenvalues>
  <separator name="orbital magnetization" >
   <v name="MAGDIPOLOUT">      0.00000000      0.00000000      0.00000000</v>
  </separator>
  <dos>
   <i name="efermi">     -5.17843089 </i>
   <total>
    <array>
     <dimension dim="1">gridpoints</dimension>
     <dimension dim="2">spin</dimension>
     <field>energy</field>
     <field>total</field>
     <field>integrated</field>
     <set>
      <set comment="spin 1">
       <r>   -27.9080     0.0000     0.0000 </r>
       <r>   -27.8033     0.0000     0.0000 </r>
       <r>   -27.6987     0.0000     0.0000 </r>
       <r>   -27.5941     0.0000     0.0000 </r>
       <r>   -27.4895     0.0000     0.0000 </r>
       <r>   -27.3848     0.0000     0.0000 </r>
       <r>   -27.2802     0.0000     0.0000 </r>
       <r>   -27.1756     0.0000     0.0000 </r>
       <r>   -27.0710     0.0000     0.0000 </r>
       <r>   -26.9663     0.0000     0.0000 </r>
       <r>   -26.8617     0.0000     0.0000 </r>
       <r>   -26.7571     0.0000     0.0000 </r>
       <r>   -26.6525     0.0000     0.0000 </r>
       <r>   -26.5479     0.0000     0.0000 </r>
       <r>   -26.4432    56.4334     5.9043 </r>
       <r>   -26.3386     0.0000     6.0000 </r>
       <r>   -26.2340     0.0000     6.0000 </r>
       <r>   -26.1294     0.0000     6.0000 </r>
       <r>   -26.0247     0.0000     6.0000 </r>
       <r>   -25.9201     0.0000     6.0000 </r>
       <r>   -25.8155     0.0000     6.0000 </r>
       <r>   -25.7109    19.1161     8.0000 </r>
       <r>   -25.6062     0.0000     8.0000 </r>
       <r>   -25.5016     0.0000     8.0000 </r>
       <r>   -25.3970     0.0000     8.0000 </r>
       <r>   -25.2924    13.3429     9.3960 </r>
       <r>   -25.1877     0.0000    10.0000 </r>
       <r>   -25.0831     0.0000    10.0000 </r>
       <r>   -24.9785     0.0000    10.0000 </r>
       <r>   -24.8739     0.0000    10.0000 </r>
       <r>   -24.7692     0.0000    10.0000 </r>
       <r>   -24.6646     0.0000    10.0000 </r>
       <r>   -24.5600     0.0000    10.0000 </r>
       <r>   -24.4554     0.0000    10.0000 </r>
       <r>   -24.3508     0.0000    10.0000 </r>
       <r>   -24.2461     0.0000    10.0000 </r>
       <r>   -24.1415     0.0000    10.0000 </r>
       <r>   -24.0369     0.0000    10.0000 </r>
       <r>   -23.9323     0.0000    10.0000 </r>
       <r>   -23.8276     0.0000    10.0000 </r>
       <r>   -23.7230     0.0000    10.0000 </r>
       <r>   -23.6184     0.0000    10.0000 </r>
       <r>   -23.5138     0.0000    10.0000 </r>
       <r>   -23.4091     0.0000    10.0000 </r>
       <r>   -23.3045     0.0000    10.0000 </r>
       <r>   -23.1999     0.0000    10.0000 </r>
       <r>   -23.0953     0.0000    10.0000 </r>
       <r>   -22.9906     0.0000    10.0000 </r>
       <r>   -22.8860     0.0000    10.0000 </r>
       <r>   -22.7814     0.1225    10.0128 </r>
       <r>   -22.6768     0.0000    14.0000 </r>
       <r>   -22.5721     0.0000    14.0000 </r>
       <r>   -22.4675     0.0000    14.0000 </r>
       <r>   -22.3629     0.0000    14.0000 </r>
       <r>   -22.2583    38.2322    18.0000 </r>
       <r>   -22.1537     0.0000    18.0000 </r>
       <r>   -22.0490     0.0000    18.0000 </r>
       <r>   -21.9444     0.0000    18.0000 </r>
       <r>   -21.8398     0.0000    18.0000 </r>
       <r>   -21.7352     0.0000    18.0000 </r>
       <r>   -21.6305     0.0000    18.0000 </r>
       <r>   -21.5259     0.0000    18.0000 </r>
       <r>   -21.4213     0.0000    18.0000 </r>
       <r>   -21.3167     0.0000    18.0000 </r>
       <r>   -21.2120     0.0000    18.0000 </r>
       <r>   -21.1074     0.0000    18.0000 </r>
       <r>   -21.0028    24.7224    20.5866 </r>
       <r>   -20.8982     0.0000    24.0000 </r>
       <r>   -20.7935     0.0000    24.0000 </r>
       <r>   -20.6889     0.0000    24.0000 </r>
       <r>   -20.5843     0.0000    24.0000 </r>
       <r>   -20.4797     0.0000    24.0000 </r>
       <r>   -20.3750     0.0000    24.0000 </r>
       <r>   -20.2704     0.0000    24.0000 </r>
       <r>   -20.1658     0.0000    24.0000 </r>
       <r>   -20.0612     0.0000    24.0000 </r>
       <r>   -19.9566     0.0000    24.0000 </r>
       <r>   -19.8519     0.0000    24.0000 </r>
       <r>   -19.7473     0.0000    24.0000 </r>
       <r>   -19.6427     0.0000    24.0000 </r>
       <r>   -19.5381     0.0000    24.0000 </r>
       <r>   -19.4334     0.0000    24.0000 </r>
       <r>   -19.3288     0.0000    24.0000 </r>
       <r>   -19.2242     0.0000    24.0000 </r>
       <r>   -19.1196    24.6127    26.5751 </r>
       <r>   -19.0149    11.4662    27.9996 </r>
       <r>   -18.9103     2.8795    28.3013 </r>
       <r>   -18.8057     4.3812    29.3584 </r>
       <r>   -18.7011     4.7790    30.0000 </r>
       <r>   -18.5964     0.0000    30.0000 </r>
       <r>   -18.4918     0.0000    30.0000 </r>
       <r>   -18.3872     0.0000    30.0000 </r>
       <r>   -18.2826     0.0000    30.0000 </r>
       <r>   -18.1779    43.4133    34.5421 </r>
       <r>   -18.0733     0.0000    36.0000 </r>
       <r>   -17.9687     0.0000    36.0000 </r>
       <r>   -17.8641     0.0000    36.0000 </r>
       <r>   -17.7594     0.0000    36.0000 </r>
       <r>   -17.6548     0.0000    36.0000 </r>
       <r>   -17.5502     0.0000    36.0000 </r>
       <r>   -17.4456    22.1786    38.3204 </r>
       <r>   -17.3410     1.8434    38.6262 </r>
       <r>   -17.2363     1.8125    38.8563 </r>
       <r>   -17.1317     2.2720    39.1377 </r>
       <r>   -17.0271     3.7949    39.7970 </r>
       <r>   -16.9225     0.0000    40.0000 </r>
       <r>   -16.8178     1.3077    40.1368 </r>
       <r>   -16.7132     3.2875    40.6106 </r>
       <r>   -16.6086     1.8196    41.0570 </r>
       <r>   -16.5040     1.2874    41.2014 </r>
       <r>   -16.3993     1.0952    41.3479 </r>
       <r>   -16.2947     1.1626    41.4883 </r>
       <r>   -16.1901     0.9870    41.6033 </r>
       <r>   -16.0855     0.9165    41.7292 </r>
       <r>   -15.9808     0.9382    41.8648 </r>
       <r>   -15.8762     1.2744    42.0000 </r>
       <r>   -15.7716    20.4055    44.1349 </r>
       <r>   -15.6670     1.0192    44.2733 </r>
       <r>   -15.5623     1.0918    44.4142 </r>
       <r>   -15.4577     1.1631    44.5550 </r>
       <r>   -15.3531     1.2046    44.6927 </r>
       <r>   -15.2485     1.2370    44.8628 </r>
       <r>   -15.1439     2.0086    45.0768 </r>
       <r>   -15.0392     4.2075    45.8069 </r>
       <r>   -14.9346     3.0679    46.3210 </r>
       <r>   -14.8300    52.6763    52.1445 </r>
       <r>   -14.7254     7.0392    53.3698 </r>
       <r>   -14.6207    23.2579    56.0000 </r>
       <r>   -14.5161     0.0000    56.0000 </r>
       <r>   -14.4115     0.0000    56.0000 </r>
       <r>   -14.3069     0.0000    56.0000 </r>
       <r>   -14.2022     0.0000    56.0000 </r>
       <r>   -14.0976     0.0000    56.0000 </r>
       <r>   -13.9930     5.4781    56.5731 </r>
       <r>   -13.8884    21.4907    58.9484 </r>
       <r>   -13.7837     7.9837    59.9686 </r>
       <r>   -13.6791     0.0000    60.0000 </r>
       <r>   -13.5745     3.3172    60.3471 </r>
       <r>   -13.4699     4.8944    60.9787 </r>
       <r>   -13.3652    20.4204    63.1698 </r>
       <r>   -13.2606     1.1279    63.3180 </r>
       <r>   -13.1560     0.7939    63.4497 </r>
       <r>   -13.0514     0.8588    63.5899 </r>
       <r>   -12.9468     0.9507    63.7328 </r>
       <r>   -12.8421     1.1660    63.8887 </r>
       <r>   -12.7375     0.0005    64.0000 </r>
       <r>   -12.6329    21.3005    66.2286 </r>
       <r>   -12.5283     2.2556    66.5360 </r>
       <r>   -12.4236    12.7440    68.0000 </r>
       <r>   -12.3190     0.0000    68.0000 </r>
       <r>   -12.2144     3.6603    68.3830 </r>
       <r>   -12.1098     2.8074    68.7604 </r>
       <r>   -12.0051    10.1952    70.0000 </r>
       <r>   -11.9005    24.9814    72.6137 </r>
       <r>   -11.7959     4.0579    73.1579 </r>
       <r>   -11.6913     4.1417    74.0000 </r>
       <r>   -11.5866     3.6246    74.3792 </r>
       <r>   -11.4820     9.5580    76.0000 </r>
       <r>   -11.3774    15.0773    77.5774 </r>
       <r>   -11.2728     9.7189    79.9168 </r>
       <r>   -11.1681     0.0000    80.0000 </r>
       <r>   -11.0635     0.0000    80.0000 </r>
       <r>   -10.9589     9.3026    80.9733 </r>
       <r>   -10.8543     0.0000    82.0000 </r>
       <r>   -10.7497     0.0000    82.0000 </r>
       <r>   -10.6450    10.0150    83.0478 </r>
       <r>   -10.5404     2.9415    83.4411 </r>
       <r>   -10.4358    41.9763    87.9584 </r>
       <r>   -10.3312     0.0000    88.0000 </r>
       <r>   -10.2265    10.9672    89.1474 </r>
       <r>   -10.1219     3.7756    89.7617 </r>
       <r>   -10.0173    34.8158    93.5092 </r>
       <r>    -9.9127     0.0000    94.0000 </r>
       <r>    -9.8080     0.0077    94.0008 </r>
       <r>    -9.7034    27.8619    97.5817 </r>
       <r>    -9.5988    15.5368   100.2922 </r>
       <r>    -9.4942     2.0664   100.5829 </r>
       <r>    -9.3895     2.5046   100.9287 </r>
       <r>    -9.2849    19.0818   103.1631 </r>
       <r>    -9.1803     9.5580   106.0000 </r>
       <r>    -9.0757    19.1152   107.9999 </r>
       <r>    -8.9710     9.9208   109.0379 </r>
       <r>    -8.8664     4.7769   109.6998 </r>
       <r>    -8.7618    15.6369   112.0360 </r>
       <r>    -8.6572     4.5513   112.7762 </r>
       <r>    -8.5526    10.8097   114.0643 </r>
       <r>    -8.4479     8.2540   115.2636 </r>
       <r>    -8.3433     5.6995   115.9963 </r>
       <r>    -8.2387    21.7923   118.2800 </r>
       <r>    -8.1341    13.2414   120.0187 </r>
       <r>    -8.0294    20.4775   122.5091 </r>
       <r>    -7.9248    30.3209   126.0390 </r>
       <r>    -7.8202    42.3739   132.0000 </r>
       <r>    -7.7156     0.0000   132.0000 </r>
       <r>    -7.6109     0.0000   132.0000 </r>
       <r>    -7.5063    38.2322   136.0000 </r>
       <r>    -7.4017     0.0000   136.0000 </r>
       <r>    -7.2971     0.0000   136.0000 </r>
       <r>    -7.1924     0.0000   136.0000 </r>
       <r>    -7.0878     0.0000   136.0000 </r>
       <r>    -6.9832     0.0000   136.0000 </r>
       <r>    -6.8786     0.0000   136.0000 </r>
       <r>    -6.7739     0.0000   136.0000 </r>
       <r>    -6.6693     0.0000   136.0000 </r>
       <r>    -6.5647     0.0000   136.0000 </r>
       <r>    -6.4601     0.0000   136.0000 </r>
       <r>    -6.3554     2.0076   136.2100 </r>
       <r>    -6.2508    25.8067   140.0000 </r>
       <r>    -6.1462     0.0000   140.0000 </r>
       <r>    -6.0416    37.7991   143.9547 </r>
       <r>    -5.9370    18.7593   145.9627 </r>
       <r>    -5.8323     0.0000   146.0000 </r>
       <r>    -5.7277     0.0000   146.0000 </r>
       <r>    -5.6231    38.2322   150.0000 </r>
       <r>    -5.5185     0.0000   150.0000 </r>
       <r>    -5.4138     0.0000   150.0000 </r>
       <r>    -5.3092    22.1915   152.3218 </r>
       <r>    -5.2046    19.1161   156.0000 </r>
       <r>    -5.1000     0.0000   156.0000 </r>
       <r>    -4.9953     0.0000   156.0000 </r>
       <r>    -4.8907     0.0000   156.0000 </r>
       <r>    -4.7861     0.0000   156.0000 </r>
       <r>    -4.6815     0.0000   156.0000 </r>
       <r>    -4.5768     0.0000   156.0000 </r>
       <r>    -4.4722     0.0000   156.0000 </r>
       <r>    -4.3676     0.0000   156.0000 </r>
       <r>    -4.2630     0.0000   156.0000 </r>
       <r>    -4.1583     0.0000   156.0000 </r>
       <r>    -4.0537     0.0000   156.0000 </r>
       <r>    -3.9491     0.0000   156.0000 </r>
       <r>    -3.8445     0.0000   156.0000 </r>
       <r>    -3.7399     0.0000   156.0000 </r>
       <r>    -3.6352     0.0000   156.0000 </r>
       <r>    -3.5306     0.0000   156.0000 </r>
       <r>    -3.4260     0.0000   156.0000 </r>
       <r>    -3.3214     0.0000   156.0000 </r>
       <r>    -3.2167     0.0000   156.0000 </r>
       <r>    -3.1121     0.0000   156.0000 </r>
       <r>    -3.0075     0.0000   156.0000 </r>
       <r>    -2.9029     0.0000   156.0000 </r>
       <r>    -2.7982     0.0000   156.0000 </r>
       <r>    -2.6936     0.0000   156.0000 </r>
       <r>    -2.5890    38.2322   160.0000 </r>
       <r>    -2.4844     0.0000   160.0000 </r>
       <r>    -2.3797     0.0000   160.0000 </r>
       <r>    -2.2751     0.0000   160.0000 </r>
       <r>    -2.1705     0.0000   160.0000 </r>
       <r>    -2.0659     0.0000   160.0000 </r>
       <r>    -1.9612    38.2322   164.0000 </r>
       <r>    -1.8566     0.0000   164.0000 </r>
       <r>    -1.7520     0.0000   164.0000 </r>
       <r>    -1.6474     0.0000   164.0000 </r>
       <r>    -1.5428     0.0000   164.0000 </r>
       <r>    -1.4381     0.0000   164.0000 </r>
       <r>    -1.3335     0.0000   164.0000 </r>
       <r>    -1.2289     0.0000   164.0000 </r>
       <r>    -1.1243    43.0922   168.5085 </r>
       <r>    -1.0196     9.4025   169.6837 </r>
       <r>    -0.9150    11.3713   171.1897 </r>
       <r>    -0.8104     4.7790   172.0000 </r>
       <r>    -0.7058     0.0000   172.0000 </r>
       <r>    -0.6011    17.6550   173.8471 </r>
       <r>    -0.4965    15.7833   177.9847 </r>
       <r>    -0.3919     0.0000   178.0000 </r>
       <r>    -0.2873     0.0000   178.0000 </r>
       <r>    -0.1826     0.0000   178.0000 </r>
       <r>    -0.0780     0.9433   178.0987 </r>
       <r>     0.0266     5.0808   178.9982 </r>
       <r>     0.1312     7.8353   180.2198 </r>
       <r>     0.2359     6.9910   181.1981 </r>
       <r>     0.3405     6.6896   181.9999 </r>
       <r>     0.4451     0.0000   182.0000 </r>
       <r>     0.5497    14.3378   183.5001 </r>
       <r>     0.6543     9.4779   184.9250 </r>
       <r>     0.7590    15.9192   186.8655 </r>
       <r>     0.8636    28.8110   191.1143 </r>
       <r>     0.9682    15.2459   193.3951 </r>
       <r>     1.0728     7.8108   194.7505 </r>
       <r>     1.1775    18.5688   197.3427 </r>
       <r>     1.2821    26.2823   200.9164 </r>
       <r>     1.3867    18.5715   203.3430 </r>
       <r>     1.4913    29.8923   207.0608 </r>
       <r>     1.5960    27.5883   210.7531 </r>
       <r>     1.7006    24.5212   213.7322 </r>
       <r>     1.8052    25.7184   217.0908 </r>
       <r>     1.9098    37.5483   222.7285 </r>
       <r>     2.0145     3.5285   223.7692 </r>
       <r>     2.1191     1.2744   224.0000 </r>
       <r>     2.2237     0.0000   224.0000 </r>
       <r>     2.3283     0.0000   224.0000 </r>
       <r>     2.4330     0.0000   224.0000 </r>
       <r>     2.5376     0.0000   224.0000 </r>
       <r>     2.6422     0.0000   224.0000 </r>
       <r>     2.7468     0.0000   224.0000 </r>
       <r>     2.8515     0.0000   224.0000 </r>
       <r>     2.9561     0.0000   224.0000 </r>
       <r>     3.0607     0.0000   224.0000 </r>
       <r>     3.1653     0.0000   224.0000 </r>
       <r>     3.2699     0.0000   224.0000 </r>
       <r>     3.3746     0.0000   224.0000 </r>
       <r>     3.4792     0.0000   224.0000 </r>
      </set>
     </set>
    </array>
   </total>
  </dos>
 </calculation>
 <structure name="finalpos" >
  <crystal>
   <varray name="basis" >
    <v>      14.55772497       0.00169687       0.00000000 </v>
    <v>       7.28033202      12.60651121       0.00000000 </v>
    <v>       0.00000000       0.00000000      20.00000000 </v>
   </varray>
   <i name="volume">   3670.19538433 </i>
   <varray name="rec_basis" >
    <v>       0.06869668      -0.03967272       0.00000000 </v>
    <v>      -0.00000925       0.07932943       0.00000000 </v>
    <v>       0.00000000       0.00000000       0.05000000 </v>
   </varray>
  </crystal>
  <varray name="positions" >
   <v>       0.73730425       0.73730425       0.48723701 </v>
   <v>       0.73737058       0.57321772       0.48648212 </v>
   <v>       0.57321772       0.73737058       0.48648212 </v>
   <v>       0.29470723       0.29470723       0.48826064 </v>
   <v>       0.29468990       0.45874823       0.48862217 </v>
   <v>       0.45874823       0.29468990       0.48862217 </v>
   <v>       0.91478244       0.56645545       0.36518315 </v>
   <v>       0.56655405       0.56655405       0.36518450 </v>
   <v>       0.56645545       0.91478244       0.36518315 </v>
   <v>       0.90521441       0.57135270       0.48727224 </v>
   <v>       0.96228986       0.54274168       0.42689749 </v>
   <v>       0.96079975       0.54370542       0.54785685 </v>
   <v>       0.78692287       0.63047535       0.48716860 </v>
   <v>       0.63047535       0.78692287       0.48716860 </v>
   <v>       0.63052007       0.63052007       0.48693344 </v>
   <v>       0.57139437       0.57139437       0.48723754 </v>
   <v>       0.57135270       0.90521441       0.48727224 </v>
   <v>       0.40125470       0.24566121       0.48847525 </v>
   <v>       0.24566121       0.40125470       0.48847525 </v>
   <v>       0.40123319       0.40123319       0.48861939 </v>
   <v>       0.54282246       0.54282246       0.42690232 </v>
   <v>       0.48739571       0.48739571       0.42772026 </v>
   <v>       0.54274168       0.96228986       0.42689749 </v>
   <v>       0.48735032       0.07318077       0.42768464 </v>
   <v>       0.07318077       0.48735032       0.42768464 </v>
   <v>       0.46039330       0.46039330       0.48849689 </v>
   <v>       0.48843120       0.48843120       0.54893638 </v>
   <v>       0.54365757       0.54365757       0.54785875 </v>
   <v>       0.46041353       0.12729630       0.48842929 </v>
   <v>       0.48850316       0.07127194       0.54889875 </v>
   <v>       0.54370542       0.96079975       0.54785685 </v>
   <v>       0.12729630       0.46041353       0.48842929 </v>
   <v>       0.07127194       0.48850316       0.54889875 </v>
   <v>       0.83802990       0.60488419       0.37023100 </v>
   <v>       0.91642879       0.56597055       0.59469397 </v>
   <v>       0.60492236       0.60492236       0.37028421 </v>
   <v>       0.60488419       0.83802990       0.37023100 </v>
   <v>       0.56583537       0.56583537       0.59469895 </v>
   <v>       0.56597055       0.91642879       0.59469397 </v>
   <v>       0.46619681       0.46619681       0.38021581 </v>
   <v>       0.46612894       0.11560595       0.38018406 </v>
   <v>       0.11560595       0.46612894       0.38018406 </v>
   <v>       0.46723741       0.46723741       0.59641516 </v>
   <v>       0.46737161       0.11369918       0.59636869 </v>
   <v>       0.11369918       0.46737161       0.59636869 </v>
  </varray>
 </structure>
</modeling>
