<?xml version="1.0" encoding="ISO-8859-1"?>
<modeling>
 <generator>
  <i name="program" type="string">vasp </i>
  <i name="version" type="string">5.4.4.18Apr17-6-g9f103f2a35  </i>
  <i name="subversion" type="string">(build Jun 07 2020 16:50:00) complex            parallel </i>
  <i name="platform" type="string">LinuxIFC </i>
  <i name="date" type="string">2023 02 14 </i>
  <i name="time" type="string">04:36:53 </i>
 </generator>
 <incar>
  <i type="string" name="SYSTEM">Simulation for cell shape cell volume r</i>
  <i type="int" name="ISTART">     1</i>
  <i type="string" name="PREC">high</i>
  <i type="string" name="ALGO">48</i>
  <i type="int" name="ICHARG">    11</i>
  <i type="int" name="NELM">   200</i>
  <i type="int" name="IBRION">    -1</i>
  <i name="EDIFF">      0.00001000</i>
  <i name="EDIFFG">     -0.01000000</i>
  <i type="int" name="NSW">     0</i>
  <i type="int" name="ISIF">     2</i>
  <i name="ENCUT">    500.00000000</i>
  <i name="POTIM">      0.30000000</i>
  <i type="string" name="LREAL">A</i>
  <i type="int" name="ISMEAR">     0</i>
  <i name="SIGMA">      0.01000000</i>
  <i type="int" name="NWRITE">     0</i>
  <i type="logical" name="LWAVE"> F  </i>
  <i type="logical" name="LCHARG"> F  </i>
  <v type="int" name="KPOINT_BSE">    -1     0     0     0</v>
  <i type="int" name="NELM">   200</i>
  <i type="string" name="GGA">PE</i>
 </incar>
 <structure name="primitive_cell" >
  <crystal>
   <varray name="basis" >
    <v>      14.30793963      -0.00089086       0.00000000 </v>
    <v>       7.15316100      12.39150616       0.00000000 </v>
    <v>       0.00000000       0.00000000      20.00000000 </v>
   </varray>
   <i name="volume">   3546.06589044 </i>
   <varray name="rec_basis" >
    <v>       0.06988875      -0.04034421       0.00000000 </v>
    <v>       0.00000502       0.08069754       0.00000000 </v>
    <v>       0.00000000       0.00000000       0.05000000 </v>
   </varray>
  </crystal>
  <varray name="positions" >
   <v>      -0.02588258      -0.45806156      -0.31844300 </v>
   <v>      -0.08606913      -0.42792677      -0.35854774 </v>
   <v>      -0.13798493      -0.46393350      -0.35320233 </v>
   <v>      -0.13798943      -0.34002388      -0.35314811 </v>
   <v>      -0.03034069      -0.45576748      -0.42515337 </v>
   <v>       0.07789699       0.49012907      -0.42588687 </v>
   <v>      -0.08800332      -0.42698943      -0.48601821 </v>
   <v>       0.12675005       0.46564077      -0.48565942 </v>
   <v>      -0.20882984      -0.36658045      -0.48651392 </v>
   <v>      -0.03939865      -0.45135861       0.45435236 </v>
   <v>      -0.25839125      -0.42521439      -0.48610294 </v>
   <v>      -0.25839296      -0.25839296      -0.48619061 </v>
   <v>      -0.34002388      -0.13798943      -0.35314811 </v>
   <v>      -0.34012333      -0.46403037      -0.35318413 </v>
   <v>       0.06858329       0.49467403       0.45447580 </v>
   <v>       0.24754263       0.40523371      -0.48547506 </v>
   <v>       0.29705664       0.29705664      -0.48568630 </v>
   <v>       0.29705085       0.46391316      -0.48582087 </v>
   <v>      -0.36658706      -0.36658706      -0.48648933 </v>
   <v>      -0.36658045      -0.20882984      -0.48651392 </v>
   <v>      -0.42792677      -0.08606913      -0.35854774 </v>
   <v>      -0.42803668      -0.42803668      -0.35858295 </v>
   <v>      -0.46393350      -0.13798493      -0.35320233 </v>
   <v>      -0.46403037      -0.34012333      -0.35318413 </v>
   <v>       0.10898032       0.47443907       0.40592046 </v>
   <v>      -0.42521439      -0.25839125      -0.48610294 </v>
   <v>      -0.45806156      -0.02588258      -0.31844300 </v>
   <v>      -0.45814812      -0.45814812      -0.31849091 </v>
   <v>       0.40523371       0.24754263      -0.48547506 </v>
   <v>       0.40522788       0.40522788      -0.48558421 </v>
   <v>      -0.42698943      -0.08800332      -0.48601821 </v>
   <v>      -0.42700838      -0.42700838      -0.48606604 </v>
   <v>      -0.45576748      -0.03034069      -0.42515337 </v>
   <v>      -0.45587728      -0.45587728      -0.42521158 </v>
   <v>       0.46391316       0.29705085      -0.48582087 </v>
   <v>       0.46564077       0.12675005      -0.48565942 </v>
   <v>       0.46562363       0.46562363      -0.48577083 </v>
   <v>       0.48998879       0.48998879      -0.42595531 </v>
   <v>       0.49012907       0.07789699      -0.42588687 </v>
   <v>      -0.45125442      -0.45125442       0.45424621 </v>
   <v>      -0.45135861      -0.03939865       0.45435236 </v>
   <v>       0.49467403       0.06858329       0.45447580 </v>
   <v>       0.49473942       0.49473942       0.45437902 </v>
   <v>       0.47443907       0.10898032       0.40592046 </v>
   <v>       0.47453723       0.47453723       0.40582630 </v>
  </varray>
 </structure>
 <varray name="primitive_index" >
  <v type="int" >        1 </v>
  <v type="int" >       33 </v>
  <v type="int" >        2 </v>
  <v type="int" >        3 </v>
  <v type="int" >       31 </v>
  <v type="int" >       19 </v>
  <v type="int" >       32 </v>
  <v type="int" >       40 </v>
  <v type="int" >       27 </v>
  <v type="int" >       22 </v>
  <v type="int" >       14 </v>
  <v type="int" >       15 </v>
  <v type="int" >        5 </v>
  <v type="int" >        9 </v>
  <v type="int" >       41 </v>
  <v type="int" >       30 </v>
  <v type="int" >       18 </v>
  <v type="int" >       17 </v>
  <v type="int" >       26 </v>
  <v type="int" >       25 </v>
  <v type="int" >       36 </v>
  <v type="int" >       39 </v>
  <v type="int" >        6 </v>
  <v type="int" >        8 </v>
  <v type="int" >       10 </v>
  <v type="int" >       13 </v>
  <v type="int" >        4 </v>
  <v type="int" >        7 </v>
  <v type="int" >       28 </v>
  <v type="int" >       29 </v>
  <v type="int" >       35 </v>
  <v type="int" >       38 </v>
  <v type="int" >       34 </v>
  <v type="int" >       37 </v>
  <v type="int" >       16 </v>
  <v type="int" >       42 </v>
  <v type="int" >       44 </v>
  <v type="int" >       21 </v>
  <v type="int" >       20 </v>
  <v type="int" >       24 </v>
  <v type="int" >       23 </v>
  <v type="int" >       43 </v>
  <v type="int" >       45 </v>
  <v type="int" >       11 </v>
  <v type="int" >       12 </v>
 </varray>
 <kpoints>
  <generation param="listgenerated">
   <i name="divisions" type="int">      20 </i>
   <v>       0.00000000       0.00000000       0.00000000 </v>
   <v>       0.50000000       0.50000000       0.00000000 </v>
   <v>       0.33333333       0.66666667       0.00000000 </v>
   <v>       0.00000000       0.00000000       0.00000000 </v>
  </generation>
  <varray name="kpointlist" >
   <v>       0.00000000       0.00000000       0.00000000 </v>
   <v>       0.02631579       0.02631579       0.00000000 </v>
   <v>       0.05263158       0.05263158       0.00000000 </v>
   <v>       0.07894737       0.07894737       0.00000000 </v>
   <v>       0.10526316       0.10526316       0.00000000 </v>
   <v>       0.13157895       0.13157895       0.00000000 </v>
   <v>       0.15789474       0.15789474       0.00000000 </v>
   <v>       0.18421053       0.18421053       0.00000000 </v>
   <v>       0.21052632       0.21052632       0.00000000 </v>
   <v>       0.23684211       0.23684211       0.00000000 </v>
   <v>       0.26315789       0.26315789       0.00000000 </v>
   <v>       0.28947368       0.28947368       0.00000000 </v>
   <v>       0.31578947       0.31578947       0.00000000 </v>
   <v>       0.34210526       0.34210526       0.00000000 </v>
   <v>       0.36842105       0.36842105       0.00000000 </v>
   <v>       0.39473684       0.39473684       0.00000000 </v>
   <v>       0.42105263       0.42105263       0.00000000 </v>
   <v>       0.44736842       0.44736842       0.00000000 </v>
   <v>       0.47368421       0.47368421       0.00000000 </v>
   <v>       0.50000000       0.50000000       0.00000000 </v>
   <v>       0.50000000       0.50000000       0.00000000 </v>
   <v>       0.49122807       0.50877193       0.00000000 </v>
   <v>       0.48245614       0.51754386       0.00000000 </v>
   <v>       0.47368421       0.52631579       0.00000000 </v>
   <v>       0.46491228       0.53508772       0.00000000 </v>
   <v>       0.45614035       0.54385965       0.00000000 </v>
   <v>       0.44736842       0.55263158       0.00000000 </v>
   <v>       0.43859649       0.56140351       0.00000000 </v>
   <v>       0.42982456       0.57017544       0.00000000 </v>
   <v>       0.42105263       0.57894737       0.00000000 </v>
   <v>       0.41228070       0.58771930       0.00000000 </v>
   <v>       0.40350877       0.59649123       0.00000000 </v>
   <v>       0.39473684       0.60526316       0.00000000 </v>
   <v>       0.38596491       0.61403509       0.00000000 </v>
   <v>       0.37719298       0.62280702       0.00000000 </v>
   <v>       0.36842105       0.63157895       0.00000000 </v>
   <v>       0.35964912       0.64035088       0.00000000 </v>
   <v>       0.35087719       0.64912281       0.00000000 </v>
   <v>       0.34210526       0.65789474       0.00000000 </v>
   <v>       0.33333333       0.66666667       0.00000000 </v>
   <v>       0.33333333       0.66666667       0.00000000 </v>
   <v>       0.31578947       0.63157895       0.00000000 </v>
   <v>       0.29824561       0.59649123       0.00000000 </v>
   <v>       0.28070175       0.56140351       0.00000000 </v>
   <v>       0.26315789       0.52631579       0.00000000 </v>
   <v>       0.24561404       0.49122807       0.00000000 </v>
   <v>       0.22807018       0.45614035       0.00000000 </v>
   <v>       0.21052632       0.42105263       0.00000000 </v>
   <v>       0.19298246       0.38596491       0.00000000 </v>
   <v>       0.17543860       0.35087719       0.00000000 </v>
   <v>       0.15789474       0.31578947       0.00000000 </v>
   <v>       0.14035088       0.28070175       0.00000000 </v>
   <v>       0.12280702       0.24561404       0.00000000 </v>
   <v>       0.10526316       0.21052632       0.00000000 </v>
   <v>       0.08771930       0.17543860       0.00000000 </v>
   <v>       0.07017544       0.14035088       0.00000000 </v>
   <v>       0.05263158       0.10526316       0.00000000 </v>
   <v>       0.03508772       0.07017544       0.00000000 </v>
   <v>       0.01754386       0.03508772       0.00000000 </v>
   <v>       0.00000000       0.00000000       0.00000000 </v>
  </varray>
  <varray name="weights" >
   <v>       0.01666667 </v>
   <v>       0.01666667 </v>
   <v>       0.01666667 </v>
   <v>       0.01666667 </v>
   <v>       0.01666667 </v>
   <v>       0.01666667 </v>
   <v>       0.01666667 </v>
   <v>       0.01666667 </v>
   <v>       0.01666667 </v>
   <v>       0.01666667 </v>
   <v>       0.01666667 </v>
   <v>       0.01666667 </v>
   <v>       0.01666667 </v>
   <v>       0.01666667 </v>
   <v>       0.01666667 </v>
   <v>       0.01666667 </v>
   <v>       0.01666667 </v>
   <v>       0.01666667 </v>
   <v>       0.01666667 </v>
   <v>       0.01666667 </v>
   <v>       0.01666667 </v>
   <v>       0.01666667 </v>
   <v>       0.01666667 </v>
   <v>       0.01666667 </v>
   <v>       0.01666667 </v>
   <v>       0.01666667 </v>
   <v>       0.01666667 </v>
   <v>       0.01666667 </v>
   <v>       0.01666667 </v>
   <v>       0.01666667 </v>
   <v>       0.01666667 </v>
   <v>       0.01666667 </v>
   <v>       0.01666667 </v>
   <v>       0.01666667 </v>
   <v>       0.01666667 </v>
   <v>       0.01666667 </v>
   <v>       0.01666667 </v>
   <v>       0.01666667 </v>
   <v>       0.01666667 </v>
   <v>       0.01666667 </v>
   <v>       0.01666667 </v>
   <v>       0.01666667 </v>
   <v>       0.01666667 </v>
   <v>       0.01666667 </v>
   <v>       0.01666667 </v>
   <v>       0.01666667 </v>
   <v>       0.01666667 </v>
   <v>       0.01666667 </v>
   <v>       0.01666667 </v>
   <v>       0.01666667 </v>
   <v>       0.01666667 </v>
   <v>       0.01666667 </v>
   <v>       0.01666667 </v>
   <v>       0.01666667 </v>
   <v>       0.01666667 </v>
   <v>       0.01666667 </v>
   <v>       0.01666667 </v>
   <v>       0.01666667 </v>
   <v>       0.01666667 </v>
   <v>       0.01666667 </v>
  </varray>
 </kpoints>
 <parameters>
  <separator name="general" >
   <i type="string" name="SYSTEM">Simulation for cell shape cell volume r</i>
   <i type="logical" name="LCOMPAT"> F  </i>
  </separator>
  <separator name="electronic" >
   <i type="string" name="PREC">high</i>
   <i name="ENMAX">    500.00000000</i>
   <i name="ENAUG">    644.87300000</i>
   <i name="EDIFF">      0.00001000</i>
   <i type="int" name="IALGO">    38</i>
   <i type="int" name="IWAVPR">    10</i>
   <i type="int" name="NBANDS">   112</i>
   <i name="NELECT">    156.00000000</i>
   <i type="int" name="TURBO">     0</i>
   <i type="int" name="IRESTART">     0</i>
   <i type="int" name="NREBOOT">     0</i>
   <i type="int" name="NMIN">     0</i>
   <i name="EREF">      0.00000000</i>
   <separator name="electronic smearing" >
    <i type="int" name="ISMEAR">     0</i>
    <i name="SIGMA">      0.01000000</i>
    <i name="KSPACING">      0.50000000</i>
    <i type="logical" name="KGAMMA"> T  </i>
   </separator>
   <separator name="electronic projectors" >
    <i type="logical" name="LREAL"> T  </i>
    <v name="ROPT">     -0.00040000     -0.00040000     -0.00040000</v>
    <i type="int" name="LMAXPAW">  -100</i>
    <i type="int" name="LMAXMIX">     2</i>
    <i type="logical" name="NLSPLINE"> F  </i>
   </separator>
   <separator name="electronic startup" >
    <i type="int" name="ISTART">     1</i>
    <i type="int" name="ICHARG">    11</i>
    <i type="int" name="INIWAV">     1</i>
   </separator>
   <separator name="electronic spin" >
    <i type="int" name="ISPIN">     1</i>
    <i type="logical" name="LNONCOLLINEAR"> F  </i>
    <v name="MAGMOM">      1.00000000      1.00000000      1.00000000      1.00000000      1.00000000      1.00000000      1.00000000      1.00000000      1.00000000      1.00000000      1.00000000      1.00000000      1.00000000      1.00000000      1.00000000      1.00000000      1.00000000      1.00000000      1.00000000      1.00000000
      1.00000000      1.00000000      1.00000000      1.00000000      1.00000000      1.00000000      1.00000000      1.00000000      1.00000000      1.00000000      1.00000000      1.00000000      1.00000000      1.00000000      1.00000000      1.00000000      1.00000000      1.00000000      1.00000000      1.00000000
      1.00000000      1.00000000      1.00000000      1.00000000      1.00000000</v>
    <i name="NUPDOWN">     -1.00000000</i>
    <i type="logical" name="LSORBIT"> F  </i>
    <v name="SAXIS">      0.00000000      0.00000000      1.00000000</v>
    <i type="logical" name="LSPIRAL"> F  </i>
    <v name="QSPIRAL">      0.00000000      0.00000000      0.00000000</v>
    <i type="logical" name="LZEROZ"> F  </i>
   </separator>
   <separator name="electronic exchange-correlation" >
    <i type="logical" name="LASPH"> F  </i>
    <i type="logical" name="LMETAGGA"> F  </i>
   </separator>
   <separator name="electronic convergence" >
    <i type="int" name="NELM">   200</i>
    <i type="int" name="NELMDL">     0</i>
    <i type="int" name="NELMIN">     2</i>
    <i name="ENINI">    500.00000000</i>
    <separator name="electronic convergence detail" >
     <i type="logical" name="LDIAG"> T  </i>
     <i type="logical" name="LSUBROT"> F  </i>
     <i name="WEIMIN">      0.00000000</i>
     <i name="EBREAK">      0.00000002</i>
     <i name="DEPER">      0.30000000</i>
     <i type="int" name="NRMM">     4</i>
     <i name="TIME">      0.40000000</i>
    </separator>
   </separator>
   <separator name="electronic mixer" >
    <i name="AMIX">      0.40000000</i>
    <i name="BMIX">      1.00000000</i>
    <i name="AMIN">      0.10000000</i>
    <i name="AMIX_MAG">      1.60000000</i>
    <i name="BMIX_MAG">      1.00000000</i>
    <separator name="electronic mixer details" >
     <i type="int" name="IMIX">     4</i>
     <i type="logical" name="MIXFIRST"> F  </i>
     <i type="int" name="MAXMIX">   -45</i>
     <i name="WC">    100.00000000</i>
     <i type="int" name="INIMIX">     1</i>
     <i type="int" name="MIXPRE">     1</i>
     <i type="int" name="MREMOVE">     5</i>
    </separator>
   </separator>
   <separator name="electronic dipolcorrection" >
    <i type="logical" name="LDIPOL"> F  </i>
    <i type="logical" name="LMONO"> F  </i>
    <i type="int" name="IDIPOL">     0</i>
    <i name="EPSILON">      1.00000000</i>
    <v name="DIPOL">   -100.00000000   -100.00000000   -100.00000000</v>
    <i name="EFIELD">      0.00000000</i>
   </separator>
  </separator>
  <separator name="grids" >
   <i type="int" name="NGX">   108</i>
   <i type="int" name="NGY">   108</i>
   <i type="int" name="NGZ">   150</i>
   <i type="int" name="NGXF">   160</i>
   <i type="int" name="NGYF">   160</i>
   <i type="int" name="NGZF">   224</i>
   <i type="logical" name="ADDGRID"> F  </i>
  </separator>
  <separator name="ionic" >
   <i type="int" name="NSW">     0</i>
   <i type="int" name="IBRION">    -1</i>
   <i type="int" name="MDALGO">     0</i>
   <i type="int" name="ISIF">     2</i>
   <i name="PSTRESS">      0.00000000</i>
   <i name="EDIFFG">     -0.01000000</i>
   <i type="int" name="NFREE">     0</i>
   <i name="POTIM">      0.30000000</i>
   <i name="SMASS">     -3.00000000</i>
   <i name="SCALEE">      1.00000000</i>
  </separator>
  <separator name="ionic md" >
   <i name="TEBEG">      0.00010000</i>
   <i name="TEEND">      0.00010000</i>
   <i type="int" name="NBLOCK">     1</i>
   <i type="int" name="KBLOCK">     1</i>
   <i type="int" name="NPACO">   256</i>
   <i name="APACO">     16.00000000</i>
  </separator>
  <separator name="symmetry" >
   <i type="int" name="ISYM">     2</i>
   <i name="SYMPREC">      0.00001000</i>
  </separator>
  <separator name="dos" >
   <i type="int" name="LORBIT">     0</i>
   <v name="RWIGS">     -1.00000000     -1.00000000     -1.00000000</v>
   <i type="int" name="NEDOS">   301</i>
   <i name="EMIN">     10.00000000</i>
   <i name="EMAX">    -10.00000000</i>
   <i name="EFERMI">      0.00000000</i>
  </separator>
  <separator name="writing" >
   <i type="int" name="NWRITE">     0</i>
   <i type="logical" name="LWAVE"> F  </i>
   <i type="logical" name="LDOWNSAMPLE"> F  </i>
   <i type="logical" name="LCHARG"> F  </i>
   <i type="logical" name="LPARD"> F  </i>
   <i type="logical" name="LVTOT"> F  </i>
   <i type="logical" name="LVHAR"> F  </i>
   <i type="logical" name="LELF"> F  </i>
   <i type="logical" name="LOPTICS"> F  </i>
   <v name="STM">      0.00000000      0.00000000      0.00000000      0.00000000      0.00000000      0.00000000      0.00000000</v>
  </separator>
  <separator name="performance" >
   <i type="int" name="NPAR">    16</i>
   <i type="int" name="NSIM">     4</i>
   <i type="int" name="NBLK">    -1</i>
   <i type="logical" name="LPLANE"> T  </i>
   <i type="logical" name="LSCALAPACK"> T  </i>
   <i type="logical" name="LSCAAWARE"> F  </i>
   <i type="logical" name="LSCALU"> F  </i>
   <i type="logical" name="LASYNC"> F  </i>
   <i type="logical" name="LORBITALREAL"> F  </i>
  </separator>
  <separator name="miscellaneous" >
   <i type="int" name="IDIOT">     3</i>
   <i type="int" name="ISPECIAL">     0</i>
   <i type="logical" name="LMUSIC"> F  </i>
   <v name="POMASS">      1.00000000     14.00100000     12.01100000</v>
   <v name="DARWINR">      0.00000000      0.00000000      0.00000000</v>
   <v name="DARWINV">      1.00000000      1.00000000      1.00000000</v>
   <i type="logical" name="LCORR"> T  </i>
  </separator>
  <i type="logical" name="GGA_COMPAT"> T  </i>
  <i type="logical" name="LBERRY"> F  </i>
  <i type="int" name="ICORELEVEL">     0</i>
  <i type="logical" name="LDAU"> F  </i>
  <i type="int" name="I_CONSTRAINED_M">     0</i>
  <separator name="electronic exchange-correlation" >
   <i type="string" name="GGA">PE</i>
   <i type="int" name="VOSKOWN">     0</i>
   <i type="logical" name="LHFCALC"> F  </i>
   <i type="string" name="PRECFOCK"></i>
   <i type="logical" name="LSYMGRAD"> F  </i>
   <i type="logical" name="LHFONE"> F  </i>
   <i type="logical" name="LRHFCALC"> F  </i>
   <i type="logical" name="LTHOMAS"> F  </i>
   <i type="logical" name="LMODELHF"> F  </i>
   <i name="ENCUT4O">     -1.00000000</i>
   <i type="int" name="EXXOEP">     0</i>
   <i type="int" name="FOURORBIT">     0</i>
   <i name="AEXX">      0.00000000</i>
   <i name="HFALPHA">      0.00000000</i>
   <i name="MCALPHA">      0.00000000</i>
   <i name="ALDAX">      1.00000000</i>
   <i name="AGGAX">      1.00000000</i>
   <i name="ALDAC">      1.00000000</i>
   <i name="AGGAC">      1.00000000</i>
   <i type="int" name="NKREDX">     1</i>
   <i type="int" name="NKREDY">     1</i>
   <i type="int" name="NKREDZ">     1</i>
   <i type="logical" name="SHIFTRED"> F  </i>
   <i type="logical" name="ODDONLY"> F  </i>
   <i type="logical" name="EVENONLY"> F  </i>
   <i type="int" name="LMAXFOCK">     0</i>
   <i type="int" name="NMAXFOCKAE">     0</i>
   <i type="logical" name="LFOCKAEDFT"> F  </i>
   <i name="HFSCREEN">      0.00000000</i>
   <i name="HFSCREENC">      0.00000000</i>
   <i type="int" name="NBANDSGWLOW">     0</i>
  </separator>
  <separator name="vdW DFT" >
   <i type="logical" name="LUSE_VDW"> F  </i>
   <i name="Zab_VDW">     -0.84910000</i>
   <i name="PARAM1">      0.12340000</i>
   <i name="PARAM2">      1.00000000</i>
   <i name="PARAM3">      0.00000000</i>
  </separator>
  <separator name="model GW" >
   <i type="int" name="MODEL_GW">     0</i>
   <i name="MODEL_EPS0">     47.28087854</i>
   <i name="MODEL_ALPHA">      1.00000000</i>
  </separator>
  <separator name="linear response parameters" >
   <i type="logical" name="LEPSILON"> F  </i>
   <i type="logical" name="LRPA"> F  </i>
   <i type="logical" name="LNABLA"> F  </i>
   <i type="logical" name="LVEL"> F  </i>
   <i type="int" name="KINTER">     0</i>
   <i name="CSHIFT">      0.10000000</i>
   <i name="OMEGAMAX">     -1.00000000</i>
   <i name="DEG_THRESHOLD">      0.00200000</i>
   <i name="RTIME">     -0.10000000</i>
   <i name="WPLASMAI">      0.00000000</i>
   <v name="DFIELD">      0.00000000      0.00000000      0.00000000</v>
   <v name="WPLASMA">      0.00000000      0.00000000      0.00000000      0.00000000      0.00000000      0.00000000      0.00000000      0.00000000      0.00000000</v>
  </separator>
  <separator name="orbital magnetization" >
   <i type="logical" name="NUCIND"> F  </i>
   <v name="MAGPOS">      0.00000000      0.00000000      0.00000000</v>
   <i type="logical" name="LNICSALL"> T  </i>
   <i type="logical" name="ORBITALMAG"> F  </i>
   <i type="logical" name="LMAGBLOCH"> F  </i>
   <i type="logical" name="LCHIMAG"> F  </i>
   <i type="logical" name="LGAUGE"> T  </i>
   <i type="int" name="MAGATOM">     0</i>
   <v name="MAGDIPOL">      0.00000000      0.00000000      0.00000000</v>
   <v name="AVECCONST">      0.00000000      0.00000000      0.00000000</v>
  </separator>
  <separator name="response functions" >
   <i type="logical" name="LADDER"> F  </i>
   <i type="logical" name="LRPAFORCE"> F  </i>
   <i type="logical" name="LFXC"> F  </i>
   <i type="logical" name="LHARTREE"> T  </i>
   <i type="int" name="IBSE">     0</i>
   <v type="int" name="KPOINT">    -1     0     0     0</v>
   <i type="logical" name="LTCTE"> F  </i>
   <i type="logical" name="LTETE"> F  </i>
   <i type="logical" name="LTRIPLET"> F  </i>
   <i type="logical" name="LFXCEPS"> F  </i>
   <i type="logical" name="LFXHEG"> F  </i>
   <i type="int" name="NATURALO">     2</i>
   <i type="logical" name="L2ORDER"> F  </i>
   <i type="logical" name="LMP2LT"> F  </i>
   <i type="logical" name="LUSEW"> F  </i>
   <i name="ENCUTGW">     -2.00000000</i>
   <i name="ENCUTGWSOFT">     -2.00000000</i>
   <i name="ENCUTLF">     -1.00000000</i>
   <i type="int" name="LMAXMP2">    -1</i>
   <i name="SCISSOR">      0.00000000</i>
   <i type="int" name="NOMEGA">     0</i>
   <i type="int" name="NOMEGAR">     0</i>
   <i type="int" name="NBANDSGW">    -1</i>
   <i type="int" name="NBANDSO">    -1</i>
   <i type="int" name="NBANDSV">    -1</i>
   <i type="int" name="NELM">   200</i>
   <i type="int" name="NELMHF">     1</i>
   <i type="int" name="DIM">     3</i>
   <i type="int" name="ANTIRES">     0</i>
   <i name="OMEGAMAX">    -30.00000000</i>
   <i name="OMEGAMIN">    -30.00000000</i>
   <i name="OMEGATL">   -200.00000000</i>
   <i type="int" name="OMEGAGRID">   140</i>
   <i name="CSHIFT">     -0.10000000</i>
   <i type="logical" name="SELFENERGY"> F  </i>
   <i type="logical" name="LSPECTRAL"> F  </i>
   <i type="logical" name="LSPECTRALGW"> F  </i>
   <i type="logical" name="LSINGLES"> F  </i>
   <i type="logical" name="LFERMIGW"> F  </i>
   <i type="logical" name="ODDONLYGW"> F  </i>
   <i type="logical" name="EVENONLYGW"> F  </i>
   <i type="int" name="NKREDLFX">     1</i>
   <i type="int" name="NKREDLFY">     1</i>
   <i type="int" name="NKREDLFZ">     1</i>
   <i type="int" name="MAXMEM">  2800</i>
   <i type="int" name="TELESCOPE">     0</i>
   <i type="int" name="TAUPAR">     1</i>
   <i type="int" name="OMEGAPAR">    -1</i>
   <i name="LAMBDA">      1.00000000</i>
  </separator>
  <separator name="External order field" >
   <i name="OFIELD_KAPPA">      0.00000000</i>
   <v name="OFIELD_K">      0.00000000      0.00000000      0.00000000</v>
   <i name="OFIELD_Q6_NEAR">      0.00000000</i>
   <i name="OFIELD_Q6_FAR">      0.00000000</i>
   <i name="OFIELD_A">      0.00000000</i>
  </separator>
  <separator name="solvation model" >
   <i type="logical" name="LSOL"> F  </i>
  </separator>
 </parameters>
 <atominfo>
  <atoms>      45 </atoms>
  <types>       3 </types>
  <array name="atoms" >
   <dimension dim="1">ion</dimension>
   <field type="string">element</field>
   <field type="int">atomtype</field>
   <set>
    <rc><c>H </c><c>   1</c></rc>
    <rc><c>H </c><c>   1</c></rc>
    <rc><c>H </c><c>   1</c></rc>
    <rc><c>H </c><c>   1</c></rc>
    <rc><c>H </c><c>   1</c></rc>
    <rc><c>H </c><c>   1</c></rc>
    <rc><c>H </c><c>   1</c></rc>
    <rc><c>H </c><c>   1</c></rc>
    <rc><c>H </c><c>   1</c></rc>
    <rc><c>H </c><c>   1</c></rc>
    <rc><c>H </c><c>   1</c></rc>
    <rc><c>H </c><c>   1</c></rc>
    <rc><c>N </c><c>   2</c></rc>
    <rc><c>N </c><c>   2</c></rc>
    <rc><c>N </c><c>   2</c></rc>
    <rc><c>N </c><c>   2</c></rc>
    <rc><c>N </c><c>   2</c></rc>
    <rc><c>N </c><c>   2</c></rc>
    <rc><c>N </c><c>   2</c></rc>
    <rc><c>N </c><c>   2</c></rc>
    <rc><c>N </c><c>   2</c></rc>
    <rc><c>N </c><c>   2</c></rc>
    <rc><c>N </c><c>   2</c></rc>
    <rc><c>N </c><c>   2</c></rc>
    <rc><c>C </c><c>   3</c></rc>
    <rc><c>C </c><c>   3</c></rc>
    <rc><c>C </c><c>   3</c></rc>
    <rc><c>C </c><c>   3</c></rc>
    <rc><c>C </c><c>   3</c></rc>
    <rc><c>C </c><c>   3</c></rc>
    <rc><c>C </c><c>   3</c></rc>
    <rc><c>C </c><c>   3</c></rc>
    <rc><c>C </c><c>   3</c></rc>
    <rc><c>C </c><c>   3</c></rc>
    <rc><c>C </c><c>   3</c></rc>
    <rc><c>C </c><c>   3</c></rc>
    <rc><c>C </c><c>   3</c></rc>
    <rc><c>C </c><c>   3</c></rc>
    <rc><c>C </c><c>   3</c></rc>
    <rc><c>C </c><c>   3</c></rc>
    <rc><c>C </c><c>   3</c></rc>
    <rc><c>C </c><c>   3</c></rc>
    <rc><c>C </c><c>   3</c></rc>
    <rc><c>C </c><c>   3</c></rc>
    <rc><c>C </c><c>   3</c></rc>
   </set>
  </array>
  <array name="atomtypes" >
   <dimension dim="1">type</dimension>
   <field type="int">atomspertype</field>
   <field type="string">element</field>
   <field>mass</field>
   <field>valence</field>
   <field type="string">pseudopotential</field>
   <set>
    <rc><c>  12</c><c>H </c><c>      1.00000000</c><c>      1.00000000</c><c>  PAW_PBE H 15Jun2001                   </c></rc>
    <rc><c>  12</c><c>N </c><c>     14.00100000</c><c>      5.00000000</c><c>  PAW_PBE N 08Apr2002                   </c></rc>
    <rc><c>  21</c><c>C </c><c>     12.01100000</c><c>      4.00000000</c><c>  PAW_PBE C 08Apr2002                   </c></rc>
   </set>
  </array>
 </atominfo>
 <structure name="initialpos" >
  <crystal>
   <varray name="basis" >
    <v>      14.30793963      -0.00089086       0.00000000 </v>
    <v>       7.15316100      12.39150616       0.00000000 </v>
    <v>       0.00000000       0.00000000      20.00000000 </v>
   </varray>
   <i name="volume">   3546.06589044 </i>
   <varray name="rec_basis" >
    <v>       0.06988875      -0.04034421       0.00000000 </v>
    <v>       0.00000502       0.08069754       0.00000000 </v>
    <v>       0.00000000       0.00000000       0.05000000 </v>
   </varray>
  </crystal>
  <varray name="positions" >
   <v>       0.97411742       0.54193844       0.68155700 </v>
   <v>       0.86201507       0.53606650       0.64679767 </v>
   <v>       0.86201057       0.65997612       0.64685189 </v>
   <v>       0.54193844       0.97411742       0.68155700 </v>
   <v>       0.65997612       0.86201057       0.64685189 </v>
   <v>       0.53606650       0.86201507       0.64679767 </v>
   <v>       0.54185188       0.54185188       0.68150909 </v>
   <v>       0.53596963       0.65987667       0.64681587 </v>
   <v>       0.65987667       0.53596963       0.64681587 </v>
   <v>       0.10898032       0.47443907       0.40592046 </v>
   <v>       0.47443907       0.10898032       0.40592046 </v>
   <v>       0.47453723       0.47453723       0.40582630 </v>
   <v>       0.57478561       0.74160875       0.51389706 </v>
   <v>       0.74160875       0.57478561       0.51389706 </v>
   <v>       0.74160704       0.74160704       0.51380939 </v>
   <v>       0.46391316       0.29705085       0.51417913 </v>
   <v>       0.29705085       0.46391316       0.51417913 </v>
   <v>       0.29705664       0.29705664       0.51431370 </v>
   <v>       0.07789699       0.49012907       0.57411313 </v>
   <v>       0.49012907       0.07789699       0.57411313 </v>
   <v>       0.48998879       0.48998879       0.57404469 </v>
   <v>       0.96060135       0.54864139       0.45435236 </v>
   <v>       0.54864139       0.96060135       0.45435236 </v>
   <v>       0.54874558       0.54874558       0.45424621 </v>
   <v>       0.63341955       0.79117016       0.51348608 </v>
   <v>       0.63341294       0.63341294       0.51351067 </v>
   <v>       0.79117016       0.63341955       0.51348608 </v>
   <v>       0.40523371       0.24754263       0.51452494 </v>
   <v>       0.40522788       0.40522788       0.51441579 </v>
   <v>       0.24754263       0.40523371       0.51452494 </v>
   <v>       0.96965931       0.54423252       0.57484663 </v>
   <v>       0.91199668       0.57301057       0.51398179 </v>
   <v>       0.91393087       0.57207323       0.64145226 </v>
   <v>       0.54423252       0.96965931       0.57484663 </v>
   <v>       0.57301057       0.91199668       0.51398179 </v>
   <v>       0.57207323       0.91393087       0.64145226 </v>
   <v>       0.54412272       0.54412272       0.57478842 </v>
   <v>       0.57299162       0.57299162       0.51393396 </v>
   <v>       0.57196332       0.57196332       0.64141705 </v>
   <v>       0.12675005       0.46564077       0.51434058 </v>
   <v>       0.06858329       0.49467403       0.45447580 </v>
   <v>       0.46564077       0.12675005       0.51434058 </v>
   <v>       0.49467403       0.06858329       0.45447580 </v>
   <v>       0.46562363       0.46562363       0.51422917 </v>
   <v>       0.49473942       0.49473942       0.45437902 </v>
  </varray>
 </structure>
 <calculation>
  <scstep>
   <time name="dav">   26.50   26.71</time>
   <time name="total">   26.59   26.80</time>
   <energy>
    <i name="alphaZ">     31.63470853 </i>
    <i name="ewald">  16809.70626086 </i>
    <i name="hartreedc"> -22079.55428085 </i>
    <i name="XCdc">    564.78303845 </i>
    <i name="pawpsdc">  15040.08806666 </i>
    <i name="pawaedc"> -15071.23738469 </i>
    <i name="eentropy">     -0.00000000 </i>
    <i name="bandstr">  -2038.39001170 </i>
    <i name="atom">   6414.37220719 </i>
    <i name="e_fr_energy">   -328.59739556 </i>
    <i name="e_wo_entrp">   -328.59739556 </i>
    <i name="e_0_energy">   -328.59739556 </i>
   </energy>
  </scstep>
  <scstep>
   <time name="dav">   29.86   30.07</time>
   <time name="total">   29.87   30.08</time>
   <energy>
    <i name="e_fr_energy">   -329.01161556 </i>
    <i name="e_wo_entrp">   -329.01161556 </i>
    <i name="e_0_energy">   -329.01161556 </i>
   </energy>
  </scstep>
  <scstep>
   <time name="dav">   32.16   32.39</time>
   <time name="total">   32.16   32.39</time>
   <energy>
    <i name="e_fr_energy">   -329.01962733 </i>
    <i name="e_wo_entrp">   -329.01962733 </i>
    <i name="e_0_energy">   -329.01962733 </i>
   </energy>
  </scstep>
  <scstep>
   <time name="dav">   28.44   28.65</time>
   <time name="total">   28.44   28.65</time>
   <energy>
    <i name="e_fr_energy">   -329.01978193 </i>
    <i name="e_wo_entrp">   -329.01978193 </i>
    <i name="e_0_energy">   -329.01978193 </i>
   </energy>
  </scstep>
  <scstep>
   <time name="dav">   26.75   26.95</time>
   <time name="total">   26.75   26.95</time>
   <energy>
    <i name="alphaZ">     31.63470853 </i>
    <i name="ewald">  16809.70626086 </i>
    <i name="hartreedc"> -22079.55428085 </i>
    <i name="XCdc">    564.78303845 </i>
    <i name="pawpsdc">  15040.08806666 </i>
    <i name="pawaedc"> -15071.23738469 </i>
    <i name="eentropy">     -0.00000000 </i>
    <i name="bandstr">  -2038.81240544 </i>
    <i name="atom">   6414.37220719 </i>
    <i name="e_fr_energy">   -329.01978930 </i>
    <i name="e_wo_entrp">   -329.01978930 </i>
    <i name="e_0_energy">   -329.01978930 </i>
   </energy>
  </scstep>
  <structure>
   <crystal>
    <varray name="basis" >
     <v>      14.30793963      -0.00089086       0.00000000 </v>
     <v>       7.15316100      12.39150616       0.00000000 </v>
     <v>       0.00000000       0.00000000      20.00000000 </v>
    </varray>
    <i name="volume">   3546.06589044 </i>
    <varray name="rec_basis" >
     <v>       0.06988875      -0.04034421       0.00000000 </v>
     <v>       0.00000502       0.08069754       0.00000000 </v>
     <v>       0.00000000       0.00000000       0.05000000 </v>
    </varray>
   </crystal>
   <varray name="positions" >
    <v>       0.97411742       0.54193844       0.68155700 </v>
    <v>       0.86201507       0.53606650       0.64679767 </v>
    <v>       0.86201057       0.65997612       0.64685189 </v>
    <v>       0.54193844       0.97411742       0.68155700 </v>
    <v>       0.65997612       0.86201057       0.64685189 </v>
    <v>       0.53606650       0.86201507       0.64679767 </v>
    <v>       0.54185188       0.54185188       0.68150909 </v>
    <v>       0.53596963       0.65987667       0.64681587 </v>
    <v>       0.65987667       0.53596963       0.64681587 </v>
    <v>       0.10898032       0.47443907       0.40592046 </v>
    <v>       0.47443907       0.10898032       0.40592046 </v>
    <v>       0.47453723       0.47453723       0.40582630 </v>
    <v>       0.57478561       0.74160875       0.51389706 </v>
    <v>       0.74160875       0.57478561       0.51389706 </v>
    <v>       0.74160704       0.74160704       0.51380939 </v>
    <v>       0.46391316       0.29705085       0.51417913 </v>
    <v>       0.29705085       0.46391316       0.51417913 </v>
    <v>       0.29705664       0.29705664       0.51431370 </v>
    <v>       0.07789699       0.49012907       0.57411313 </v>
    <v>       0.49012907       0.07789699       0.57411313 </v>
    <v>       0.48998879       0.48998879       0.57404469 </v>
    <v>       0.96060135       0.54864139       0.45435236 </v>
    <v>       0.54864139       0.96060135       0.45435236 </v>
    <v>       0.54874558       0.54874558       0.45424621 </v>
    <v>       0.63341955       0.79117016       0.51348608 </v>
    <v>       0.63341294       0.63341294       0.51351067 </v>
    <v>       0.79117016       0.63341955       0.51348608 </v>
    <v>       0.40523371       0.24754263       0.51452494 </v>
    <v>       0.40522788       0.40522788       0.51441579 </v>
    <v>       0.24754263       0.40523371       0.51452494 </v>
    <v>       0.96965931       0.54423252       0.57484663 </v>
    <v>       0.91199668       0.57301057       0.51398179 </v>
    <v>       0.91393087       0.57207323       0.64145226 </v>
    <v>       0.54423252       0.96965931       0.57484663 </v>
    <v>       0.57301057       0.91199668       0.51398179 </v>
    <v>       0.57207323       0.91393087       0.64145226 </v>
    <v>       0.54412272       0.54412272       0.57478842 </v>
    <v>       0.57299162       0.57299162       0.51393396 </v>
    <v>       0.57196332       0.57196332       0.64141705 </v>
    <v>       0.12675005       0.46564077       0.51434058 </v>
    <v>       0.06858329       0.49467403       0.45447580 </v>
    <v>       0.46564077       0.12675005       0.51434058 </v>
    <v>       0.49467403       0.06858329       0.45447580 </v>
    <v>       0.46562363       0.46562363       0.51422917 </v>
    <v>       0.49473942       0.49473942       0.45437902 </v>
   </varray>
  </structure>
  <varray name="forces" >
   <v>      -0.00173179       0.00144953       0.00168485 </v>
   <v>      -0.00188613       0.00170332      -0.00093009 </v>
   <v>      -0.00016703       0.00070040      -0.00124662 </v>
   <v>       0.00038944      -0.00222454       0.00168485 </v>
   <v>       0.00052305      -0.00049485      -0.00124662 </v>
   <v>       0.00053207      -0.00248509      -0.00093009 </v>
   <v>       0.00331630       0.00191467      -0.00173346 </v>
   <v>       0.00172930       0.00025796      -0.00227818 </v>
   <v>       0.00108804       0.00136864      -0.00227818 </v>
   <v>      -0.00099307       0.00013800       0.00244238 </v>
   <v>      -0.00037703      -0.00092903       0.00244238 </v>
   <v>      -0.00028498      -0.00016453       0.00205496 </v>
   <v>      -0.00116918       0.00153407       0.00377659 </v>
   <v>       0.00074396      -0.00177958       0.00377659 </v>
   <v>      -0.00804939      -0.00464733      -0.00141431 </v>
   <v>       0.00582030      -0.00685110       0.00178958 </v>
   <v>      -0.00302311       0.00846606       0.00178958 </v>
   <v>       0.00292233       0.00168721      -0.00218602 </v>
   <v>      -0.00018095       0.00059146      -0.00210607 </v>
   <v>       0.00042175      -0.00045244      -0.00210607 </v>
   <v>       0.00348805       0.00201383      -0.00438077 </v>
   <v>      -0.00315957       0.00051529      -0.00156745 </v>
   <v>      -0.00113352      -0.00299392      -0.00156745 </v>
   <v>       0.00223551       0.00129068      -0.00073456 </v>
   <v>       0.00494872      -0.00197729       0.00166792 </v>
   <v>      -0.00381498      -0.00220259       0.00111618 </v>
   <v>       0.00076196       0.00527437       0.00166792 </v>
   <v>      -0.00516994       0.00040235       0.00087928 </v>
   <v>       0.00539996       0.00311768       0.00030246 </v>
   <v>      -0.00223651      -0.00467848       0.00087928 </v>
   <v>      -0.00076071      -0.00026032       0.00601143 </v>
   <v>       0.00227826       0.00042287       0.00215228 </v>
   <v>      -0.00261352       0.00211983      -0.00562891 </v>
   <v>      -0.00060580      -0.00052864       0.00601143 </v>
   <v>       0.00150534       0.00176160       0.00215228 </v>
   <v>       0.00052908      -0.00332329      -0.00562891 </v>
   <v>      -0.00085607      -0.00049426       0.00622421 </v>
   <v>       0.00204330       0.00117970      -0.00047848 </v>
   <v>       0.00447381       0.00258296      -0.00541846 </v>
   <v>      -0.00457443      -0.00014289      -0.00201203 </v>
   <v>      -0.00018258      -0.00140284       0.00097353 </v>
   <v>      -0.00241095      -0.00389013      -0.00201203 </v>
   <v>      -0.00130619       0.00054329       0.00097353 </v>
   <v>       0.00046710       0.00026968      -0.00357367 </v>
   <v>       0.00106979       0.00061765      -0.00099504 </v>
  </varray>
  <varray name="stress" >
   <v>      -0.04089502      -0.00472356      -0.00638173 </v>
   <v>      -0.00472356      -0.03544076      -0.00368451 </v>
   <v>      -0.00638173      -0.00368451      -0.33104968 </v>
  </varray>
  <energy>
   <i name="e_fr_energy">   -329.96837443 </i>
   <i name="e_wo_entrp">   -329.96837443 </i>
   <i name="e_0_energy">     -0.00000000 </i>
  </energy>
  <time name="totalsc">  164.03  165.30</time>
  <eigenvalues>
   <array>
    <dimension dim="1">band</dimension>
    <dimension dim="2">kpoint</dimension>
    <dimension dim="3">spin</dimension>
    <field>eigene</field>
    <field>occ</field>
    <set>
     <set comment="spin 1">
      <set comment="kpoint 1">
       <r>  -25.7351    1.0000 </r>
       <r>  -25.6838    1.0000 </r>
       <r>  -24.4813    1.0000 </r>
       <r>  -24.4798    1.0000 </r>
       <r>  -24.3074    1.0000 </r>
       <r>  -22.8985    1.0000 </r>
       <r>  -22.8981    1.0000 </r>
       <r>  -22.4942    1.0000 </r>
       <r>  -22.4927    1.0000 </r>
       <r>  -22.4774    1.0000 </r>
       <r>  -22.2569    1.0000 </r>
       <r>  -22.2564    1.0000 </r>
       <r>  -19.8758    1.0000 </r>
       <r>  -19.8748    1.0000 </r>
       <r>  -19.7331    1.0000 </r>
       <r>  -18.0735    1.0000 </r>
       <r>  -18.0731    1.0000 </r>
       <r>  -17.7778    1.0000 </r>
       <r>  -17.7768    1.0000 </r>
       <r>  -17.6489    1.0000 </r>
       <r>  -16.8237    1.0000 </r>
       <r>  -16.3259    1.0000 </r>
       <r>  -16.3248    1.0000 </r>
       <r>  -15.4531    1.0000 </r>
       <r>  -15.3848    1.0000 </r>
       <r>  -15.3845    1.0000 </r>
       <r>  -14.7140    1.0000 </r>
       <r>  -14.7117    1.0000 </r>
       <r>  -13.8516    1.0000 </r>
       <r>  -13.7990    1.0000 </r>
       <r>  -13.3071    1.0000 </r>
       <r>  -13.2792    1.0000 </r>
       <r>  -12.9782    1.0000 </r>
       <r>  -12.9771    1.0000 </r>
       <r>  -12.8842    1.0000 </r>
       <r>  -12.0140    1.0000 </r>
       <r>  -12.0132    1.0000 </r>
       <r>  -11.0911    1.0000 </r>
       <r>  -11.0877    1.0000 </r>
       <r>  -11.0875    1.0000 </r>
       <r>  -10.7769    1.0000 </r>
       <r>  -10.6356    1.0000 </r>
       <r>  -10.6355    1.0000 </r>
       <r>  -10.5636    1.0000 </r>
       <r>  -10.5108    1.0000 </r>
       <r>  -10.0474    1.0000 </r>
       <r>  -10.0456    1.0000 </r>
       <r>   -9.9372    1.0000 </r>
       <r>   -9.5670    1.0000 </r>
       <r>   -9.5664    1.0000 </r>
       <r>   -9.4537    1.0000 </r>
       <r>   -9.4247    1.0000 </r>
       <r>   -9.4241    1.0000 </r>
       <r>   -9.3829    1.0000 </r>
       <r>   -9.1294    1.0000 </r>
       <r>   -9.1271    1.0000 </r>
       <r>   -8.8488    1.0000 </r>
       <r>   -8.6240    1.0000 </r>
       <r>   -8.1159    1.0000 </r>
       <r>   -8.1145    1.0000 </r>
       <r>   -8.0803    1.0000 </r>
       <r>   -8.0796    1.0000 </r>
       <r>   -7.8752    1.0000 </r>
       <r>   -7.8747    1.0000 </r>
       <r>   -7.8458    1.0000 </r>
       <r>   -6.8650    1.0000 </r>
       <r>   -6.8244    1.0000 </r>
       <r>   -6.8214    1.0000 </r>
       <r>   -6.5792    1.0000 </r>
       <r>   -6.5790    1.0000 </r>
       <r>   -6.2705    1.0000 </r>
       <r>   -6.1807    1.0000 </r>
       <r>   -6.1798    1.0000 </r>
       <r>   -6.1211    1.0000 </r>
       <r>   -6.1201    1.0000 </r>
       <r>   -5.6060    1.0000 </r>
       <r>   -5.3912    1.0000 </r>
       <r>   -5.3887    1.0000 </r>
       <r>   -2.4322    0.0000 </r>
       <r>   -2.4308    0.0000 </r>
       <r>   -2.4274    0.0000 </r>
       <r>   -2.4269    0.0000 </r>
       <r>   -2.0664    0.0000 </r>
       <r>   -2.0178    0.0000 </r>
       <r>   -2.0169    0.0000 </r>
       <r>   -1.5502    0.0000 </r>
       <r>   -1.5499    0.0000 </r>
       <r>   -1.2743    0.0000 </r>
       <r>   -0.2276    0.0000 </r>
       <r>    0.1329    0.0000 </r>
       <r>    0.6817    0.0000 </r>
       <r>    0.6964    0.0000 </r>
       <r>    0.6970    0.0000 </r>
       <r>    0.8356    0.0000 </r>
       <r>    0.8888    0.0000 </r>
       <r>    1.0088    0.0000 </r>
       <r>    1.0089    0.0000 </r>
       <r>    1.2402    0.0000 </r>
       <r>    1.2403    0.0000 </r>
       <r>    1.2921    0.0000 </r>
       <r>    1.3681    0.0000 </r>
       <r>    1.4845    0.0000 </r>
       <r>    1.5513    0.0000 </r>
       <r>    1.5516    0.0000 </r>
       <r>    1.6168    0.0000 </r>
       <r>    1.6168    0.0000 </r>
       <r>    1.6960    0.0000 </r>
       <r>    1.7220    0.0000 </r>
       <r>    1.7503    0.0000 </r>
       <r>    1.7507    0.0000 </r>
       <r>    1.8121    0.0000 </r>
       <r>    1.8304    0.0000 </r>
      </set>
      <set comment="kpoint 2">
       <r>  -25.7350    1.0000 </r>
       <r>  -25.6839    1.0000 </r>
       <r>  -24.4813    1.0000 </r>
       <r>  -24.4796    1.0000 </r>
       <r>  -24.3077    1.0000 </r>
       <r>  -22.8985    1.0000 </r>
       <r>  -22.8977    1.0000 </r>
       <r>  -22.4990    1.0000 </r>
       <r>  -22.4942    1.0000 </r>
       <r>  -22.4713    1.0000 </r>
       <r>  -22.2569    1.0000 </r>
       <r>  -22.2566    1.0000 </r>
       <r>  -19.8758    1.0000 </r>
       <r>  -19.8746    1.0000 </r>
       <r>  -19.7334    1.0000 </r>
       <r>  -18.0731    1.0000 </r>
       <r>  -18.0726    1.0000 </r>
       <r>  -17.7778    1.0000 </r>
       <r>  -17.7769    1.0000 </r>
       <r>  -17.6486    1.0000 </r>
       <r>  -16.8285    1.0000 </r>
       <r>  -16.3259    1.0000 </r>
       <r>  -16.3197    1.0000 </r>
       <r>  -15.4531    1.0000 </r>
       <r>  -15.3848    1.0000 </r>
       <r>  -15.3845    1.0000 </r>
       <r>  -14.7140    1.0000 </r>
       <r>  -14.7134    1.0000 </r>
       <r>  -13.8516    1.0000 </r>
       <r>  -13.7991    1.0000 </r>
       <r>  -13.3068    1.0000 </r>
       <r>  -13.2790    1.0000 </r>
       <r>  -12.9782    1.0000 </r>
       <r>  -12.9777    1.0000 </r>
       <r>  -12.8839    1.0000 </r>
       <r>  -12.0141    1.0000 </r>
       <r>  -12.0119    1.0000 </r>
       <r>  -11.0945    1.0000 </r>
       <r>  -11.0873    1.0000 </r>
       <r>  -11.0843    1.0000 </r>
       <r>  -10.7773    1.0000 </r>
       <r>  -10.6361    1.0000 </r>
       <r>  -10.6359    1.0000 </r>
       <r>  -10.5637    1.0000 </r>
       <r>  -10.5108    1.0000 </r>
       <r>  -10.0486    1.0000 </r>
       <r>  -10.0475    1.0000 </r>
       <r>   -9.9334    1.0000 </r>
       <r>   -9.5671    1.0000 </r>
       <r>   -9.5665    1.0000 </r>
       <r>   -9.4543    1.0000 </r>
       <r>   -9.4242    1.0000 </r>
       <r>   -9.4241    1.0000 </r>
       <r>   -9.3826    1.0000 </r>
       <r>   -9.1292    1.0000 </r>
       <r>   -9.1278    1.0000 </r>
       <r>   -8.8481    1.0000 </r>
       <r>   -8.6243    1.0000 </r>
       <r>   -8.1157    1.0000 </r>
       <r>   -8.1144    1.0000 </r>
       <r>   -8.0802    1.0000 </r>
       <r>   -8.0796    1.0000 </r>
       <r>   -7.8753    1.0000 </r>
       <r>   -7.8748    1.0000 </r>
       <r>   -7.8459    1.0000 </r>
       <r>   -6.8650    1.0000 </r>
       <r>   -6.8245    1.0000 </r>
       <r>   -6.8214    1.0000 </r>
       <r>   -6.5788    1.0000 </r>
       <r>   -6.5788    1.0000 </r>
       <r>   -6.2712    1.0000 </r>
       <r>   -6.1808    1.0000 </r>
       <r>   -6.1804    1.0000 </r>
       <r>   -6.1206    1.0000 </r>
       <r>   -6.1198    1.0000 </r>
       <r>   -5.6056    1.0000 </r>
       <r>   -5.3915    1.0000 </r>
       <r>   -5.3887    1.0000 </r>
       <r>   -2.4375    0.0000 </r>
       <r>   -2.4369    0.0000 </r>
       <r>   -2.4214    0.0000 </r>
       <r>   -2.4211    0.0000 </r>
       <r>   -2.0663    0.0000 </r>
       <r>   -2.0178    0.0000 </r>
       <r>   -2.0172    0.0000 </r>
       <r>   -1.5502    0.0000 </r>
       <r>   -1.5497    0.0000 </r>
       <r>   -1.2748    0.0000 </r>
       <r>   -0.2272    0.0000 </r>
       <r>    0.1330    0.0000 </r>
       <r>    0.6814    0.0000 </r>
       <r>    0.6928    0.0000 </r>
       <r>    0.6962    0.0000 </r>
       <r>    0.8393    0.0000 </r>
       <r>    0.8873    0.0000 </r>
       <r>    1.0099    0.0000 </r>
       <r>    1.0113    0.0000 </r>
       <r>    1.2305    0.0000 </r>
       <r>    1.2404    0.0000 </r>
       <r>    1.3021    0.0000 </r>
       <r>    1.3687    0.0000 </r>
       <r>    1.4821    0.0000 </r>
       <r>    1.5511    0.0000 </r>
       <r>    1.5535    0.0000 </r>
       <r>    1.6123    0.0000 </r>
       <r>    1.6154    0.0000 </r>
       <r>    1.6985    0.0000 </r>
       <r>    1.7194    0.0000 </r>
       <r>    1.7534    0.0000 </r>
       <r>    1.7569    0.0000 </r>
       <r>    1.8118    0.0000 </r>
       <r>    1.8533    0.0000 </r>
      </set>
      <set comment="kpoint 3">
       <r>  -25.7348    1.0000 </r>
       <r>  -25.6841    1.0000 </r>
       <r>  -24.4813    1.0000 </r>
       <r>  -24.4788    1.0000 </r>
       <r>  -24.3086    1.0000 </r>
       <r>  -22.8985    1.0000 </r>
       <r>  -22.8964    1.0000 </r>
       <r>  -22.5099    1.0000 </r>
       <r>  -22.4942    1.0000 </r>
       <r>  -22.4612    1.0000 </r>
       <r>  -22.2569    1.0000 </r>
       <r>  -22.2569    1.0000 </r>
       <r>  -19.8758    1.0000 </r>
       <r>  -19.8741    1.0000 </r>
       <r>  -19.7342    1.0000 </r>
       <r>  -18.0731    1.0000 </r>
       <r>  -18.0702    1.0000 </r>
       <r>  -17.7778    1.0000 </r>
       <r>  -17.7774    1.0000 </r>
       <r>  -17.6477    1.0000 </r>
       <r>  -16.8426    1.0000 </r>
       <r>  -16.3259    1.0000 </r>
       <r>  -16.3048    1.0000 </r>
       <r>  -15.4532    1.0000 </r>
       <r>  -15.3849    1.0000 </r>
       <r>  -15.3845    1.0000 </r>
       <r>  -14.7184    1.0000 </r>
       <r>  -14.7140    1.0000 </r>
       <r>  -13.8514    1.0000 </r>
       <r>  -13.7992    1.0000 </r>
       <r>  -13.3057    1.0000 </r>
       <r>  -13.2785    1.0000 </r>
       <r>  -12.9795    1.0000 </r>
       <r>  -12.9782    1.0000 </r>
       <r>  -12.8831    1.0000 </r>
       <r>  -12.0143    1.0000 </r>
       <r>  -12.0082    1.0000 </r>
       <r>  -11.1000    1.0000 </r>
       <r>  -11.0859    1.0000 </r>
       <r>  -11.0800    1.0000 </r>
       <r>  -10.7784    1.0000 </r>
       <r>  -10.6380    1.0000 </r>
       <r>  -10.6367    1.0000 </r>
       <r>  -10.5641    1.0000 </r>
       <r>  -10.5107    1.0000 </r>
       <r>  -10.0565    1.0000 </r>
       <r>  -10.0478    1.0000 </r>
       <r>   -9.9233    1.0000 </r>
       <r>   -9.5674    1.0000 </r>
       <r>   -9.5668    1.0000 </r>
       <r>   -9.4560    1.0000 </r>
       <r>   -9.4246    1.0000 </r>
       <r>   -9.4224    1.0000 </r>
       <r>   -9.3819    1.0000 </r>
       <r>   -9.1298    1.0000 </r>
       <r>   -9.1287    1.0000 </r>
       <r>   -8.8463    1.0000 </r>
       <r>   -8.6250    1.0000 </r>
       <r>   -8.1152    1.0000 </r>
       <r>   -8.1140    1.0000 </r>
       <r>   -8.0802    1.0000 </r>
       <r>   -8.0795    1.0000 </r>
       <r>   -7.8758    1.0000 </r>
       <r>   -7.8751    1.0000 </r>
       <r>   -7.8461    1.0000 </r>
       <r>   -6.8648    1.0000 </r>
       <r>   -6.8246    1.0000 </r>
       <r>   -6.8213    1.0000 </r>
       <r>   -6.5783    1.0000 </r>
       <r>   -6.5775    1.0000 </r>
       <r>   -6.2736    1.0000 </r>
       <r>   -6.1822    1.0000 </r>
       <r>   -6.1812    1.0000 </r>
       <r>   -6.1193    1.0000 </r>
       <r>   -6.1189    1.0000 </r>
       <r>   -5.6044    1.0000 </r>
       <r>   -5.3924    1.0000 </r>
       <r>   -5.3887    1.0000 </r>
       <r>   -2.4446    0.0000 </r>
       <r>   -2.4441    0.0000 </r>
       <r>   -2.4138    0.0000 </r>
       <r>   -2.4132    0.0000 </r>
       <r>   -2.0661    0.0000 </r>
       <r>   -2.0179    0.0000 </r>
       <r>   -2.0178    0.0000 </r>
       <r>   -1.5503    0.0000 </r>
       <r>   -1.5490    0.0000 </r>
       <r>   -1.2765    0.0000 </r>
       <r>   -0.2260    0.0000 </r>
       <r>    0.1334    0.0000 </r>
       <r>    0.6766    0.0000 </r>
       <r>    0.6869    0.0000 </r>
       <r>    0.6938    0.0000 </r>
       <r>    0.8487    0.0000 </r>
       <r>    0.8835    0.0000 </r>
       <r>    1.0128    0.0000 </r>
       <r>    1.0184    0.0000 </r>
       <r>    1.2116    0.0000 </r>
       <r>    1.2410    0.0000 </r>
       <r>    1.3218    0.0000 </r>
       <r>    1.3704    0.0000 </r>
       <r>    1.4752    0.0000 </r>
       <r>    1.5476    0.0000 </r>
       <r>    1.5582    0.0000 </r>
       <r>    1.5992    0.0000 </r>
       <r>    1.6118    0.0000 </r>
       <r>    1.7005    0.0000 </r>
       <r>    1.7121    0.0000 </r>
       <r>    1.7620    0.0000 </r>
       <r>    1.7650    0.0000 </r>
       <r>    1.7957    0.0000 </r>
       <r>    1.8734    0.0000 </r>
      </set>
      <set comment="kpoint 4">
       <r>  -25.7346    1.0000 </r>
       <r>  -25.6844    1.0000 </r>
       <r>  -24.4813    1.0000 </r>
       <r>  -24.4776    1.0000 </r>
       <r>  -24.3100    1.0000 </r>
       <r>  -22.8985    1.0000 </r>
       <r>  -22.8942    1.0000 </r>
       <r>  -22.5216    1.0000 </r>
       <r>  -22.4942    1.0000 </r>
       <r>  -22.4507    1.0000 </r>
       <r>  -22.2576    1.0000 </r>
       <r>  -22.2569    1.0000 </r>
       <r>  -19.8758    1.0000 </r>
       <r>  -19.8732    1.0000 </r>
       <r>  -19.7355    1.0000 </r>
       <r>  -18.0732    1.0000 </r>
       <r>  -18.0661    1.0000 </r>
       <r>  -17.7781    1.0000 </r>
       <r>  -17.7778    1.0000 </r>
       <r>  -17.6463    1.0000 </r>
       <r>  -16.8642    1.0000 </r>
       <r>  -16.3258    1.0000 </r>
       <r>  -16.2818    1.0000 </r>
       <r>  -15.4532    1.0000 </r>
       <r>  -15.3850    1.0000 </r>
       <r>  -15.3845    1.0000 </r>
       <r>  -14.7265    1.0000 </r>
       <r>  -14.7141    1.0000 </r>
       <r>  -13.8512    1.0000 </r>
       <r>  -13.7995    1.0000 </r>
       <r>  -13.3041    1.0000 </r>
       <r>  -13.2776    1.0000 </r>
       <r>  -12.9824    1.0000 </r>
       <r>  -12.9782    1.0000 </r>
       <r>  -12.8819    1.0000 </r>
       <r>  -12.0146    1.0000 </r>
       <r>  -12.0022    1.0000 </r>
       <r>  -11.1064    1.0000 </r>
       <r>  -11.0837    1.0000 </r>
       <r>  -11.0754    1.0000 </r>
       <r>  -10.7802    1.0000 </r>
       <r>  -10.6410    1.0000 </r>
       <r>  -10.6380    1.0000 </r>
       <r>  -10.5647    1.0000 </r>
       <r>  -10.5105    1.0000 </r>
       <r>  -10.0673    1.0000 </r>
       <r>  -10.0482    1.0000 </r>
       <r>   -9.9089    1.0000 </r>
       <r>   -9.5680    1.0000 </r>
       <r>   -9.5672    1.0000 </r>
       <r>   -9.4585    1.0000 </r>
       <r>   -9.4253    1.0000 </r>
       <r>   -9.4200    1.0000 </r>
       <r>   -9.3807    1.0000 </r>
       <r>   -9.1331    1.0000 </r>
       <r>   -9.1278    1.0000 </r>
       <r>   -8.8433    1.0000 </r>
       <r>   -8.6261    1.0000 </r>
       <r>   -8.1144    1.0000 </r>
       <r>   -8.1134    1.0000 </r>
       <r>   -8.0801    1.0000 </r>
       <r>   -8.0794    1.0000 </r>
       <r>   -7.8766    1.0000 </r>
       <r>   -7.8755    1.0000 </r>
       <r>   -7.8465    1.0000 </r>
       <r>   -6.8644    1.0000 </r>
       <r>   -6.8249    1.0000 </r>
       <r>   -6.8213    1.0000 </r>
       <r>   -6.5775    1.0000 </r>
       <r>   -6.5755    1.0000 </r>
       <r>   -6.2774    1.0000 </r>
       <r>   -6.1850    1.0000 </r>
       <r>   -6.1817    1.0000 </r>
       <r>   -6.1174    1.0000 </r>
       <r>   -6.1171    1.0000 </r>
       <r>   -5.6024    1.0000 </r>
       <r>   -5.3938    1.0000 </r>
       <r>   -5.3887    1.0000 </r>
       <r>   -2.4516    0.0000 </r>
       <r>   -2.4511    0.0000 </r>
       <r>   -2.4060    0.0000 </r>
       <r>   -2.4050    0.0000 </r>
       <r>   -2.0658    0.0000 </r>
       <r>   -2.0192    0.0000 </r>
       <r>   -2.0177    0.0000 </r>
       <r>   -1.5505    0.0000 </r>
       <r>   -1.5480    0.0000 </r>
       <r>   -1.2792    0.0000 </r>
       <r>   -0.2241    0.0000 </r>
       <r>    0.1339    0.0000 </r>
       <r>    0.6619    0.0000 </r>
       <r>    0.6869    0.0000 </r>
       <r>    0.6900    0.0000 </r>
       <r>    0.8596    0.0000 </r>
       <r>    0.8801    0.0000 </r>
       <r>    1.0172    0.0000 </r>
       <r>    1.0290    0.0000 </r>
       <r>    1.1914    0.0000 </r>
       <r>    1.2422    0.0000 </r>
       <r>    1.3427    0.0000 </r>
       <r>    1.3730    0.0000 </r>
       <r>    1.4652    0.0000 </r>
       <r>    1.5432    0.0000 </r>
       <r>    1.5626    0.0000 </r>
       <r>    1.5831    0.0000 </r>
       <r>    1.6068    0.0000 </r>
       <r>    1.6886    0.0000 </r>
       <r>    1.7157    0.0000 </r>
       <r>    1.7684    0.0000 </r>
       <r>    1.7785    0.0000 </r>
       <r>    1.7992    0.0000 </r>
       <r>    1.8980    0.0000 </r>
      </set>
      <set comment="kpoint 5">
       <r>  -25.7342    1.0000 </r>
       <r>  -25.6848    1.0000 </r>
       <r>  -24.4813    1.0000 </r>
       <r>  -24.4759    1.0000 </r>
       <r>  -24.3120    1.0000 </r>
       <r>  -22.8985    1.0000 </r>
       <r>  -22.8912    1.0000 </r>
       <r>  -22.5337    1.0000 </r>
       <r>  -22.4943    1.0000 </r>
       <r>  -22.4404    1.0000 </r>
       <r>  -22.2585    1.0000 </r>
       <r>  -22.2569    1.0000 </r>
       <r>  -19.8758    1.0000 </r>
       <r>  -19.8720    1.0000 </r>
       <r>  -19.7374    1.0000 </r>
       <r>  -18.0732    1.0000 </r>
       <r>  -18.0605    1.0000 </r>
       <r>  -17.7791    1.0000 </r>
       <r>  -17.7778    1.0000 </r>
       <r>  -17.6442    1.0000 </r>
       <r>  -16.8917    1.0000 </r>
       <r>  -16.3258    1.0000 </r>
       <r>  -16.2524    1.0000 </r>
       <r>  -15.4533    1.0000 </r>
       <r>  -15.3852    1.0000 </r>
       <r>  -15.3845    1.0000 </r>
       <r>  -14.7377    1.0000 </r>
       <r>  -14.7142    1.0000 </r>
       <r>  -13.8509    1.0000 </r>
       <r>  -13.7998    1.0000 </r>
       <r>  -13.3020    1.0000 </r>
       <r>  -13.2762    1.0000 </r>
       <r>  -12.9862    1.0000 </r>
       <r>  -12.9782    1.0000 </r>
       <r>  -12.8804    1.0000 </r>
       <r>  -12.0150    1.0000 </r>
       <r>  -11.9938    1.0000 </r>
       <r>  -11.1139    1.0000 </r>
       <r>  -11.0807    1.0000 </r>
       <r>  -11.0704    1.0000 </r>
       <r>  -10.7827    1.0000 </r>
       <r>  -10.6451    1.0000 </r>
       <r>  -10.6398    1.0000 </r>
       <r>  -10.5656    1.0000 </r>
       <r>  -10.5103    1.0000 </r>
       <r>  -10.0793    1.0000 </r>
       <r>  -10.0487    1.0000 </r>
       <r>   -9.8920    1.0000 </r>
       <r>   -9.5689    1.0000 </r>
       <r>   -9.5678    1.0000 </r>
       <r>   -9.4613    1.0000 </r>
       <r>   -9.4261    1.0000 </r>
       <r>   -9.4172    1.0000 </r>
       <r>   -9.3790    1.0000 </r>
       <r>   -9.1376    1.0000 </r>
       <r>   -9.1266    1.0000 </r>
       <r>   -8.8393    1.0000 </r>
       <r>   -8.6277    1.0000 </r>
       <r>   -8.1133    1.0000 </r>
       <r>   -8.1125    1.0000 </r>
       <r>   -8.0800    1.0000 </r>
       <r>   -8.0792    1.0000 </r>
       <r>   -7.8777    1.0000 </r>
       <r>   -7.8761    1.0000 </r>
       <r>   -7.8470    1.0000 </r>
       <r>   -6.8640    1.0000 </r>
       <r>   -6.8253    1.0000 </r>
       <r>   -6.8212    1.0000 </r>
       <r>   -6.5765    1.0000 </r>
       <r>   -6.5726    1.0000 </r>
       <r>   -6.2827    1.0000 </r>
       <r>   -6.1887    1.0000 </r>
       <r>   -6.1824    1.0000 </r>
       <r>   -6.1157    1.0000 </r>
       <r>   -6.1144    1.0000 </r>
       <r>   -5.5997    1.0000 </r>
       <r>   -5.3958    1.0000 </r>
       <r>   -5.3888    1.0000 </r>
       <r>   -2.4583    0.0000 </r>
       <r>   -2.4578    0.0000 </r>
       <r>   -2.3982    0.0000 </r>
       <r>   -2.3968    0.0000 </r>
       <r>   -2.0655    0.0000 </r>
       <r>   -2.0209    0.0000 </r>
       <r>   -2.0176    0.0000 </r>
       <r>   -1.5508    0.0000 </r>
       <r>   -1.5464    0.0000 </r>
       <r>   -1.2829    0.0000 </r>
       <r>   -0.2214    0.0000 </r>
       <r>    0.1347    0.0000 </r>
       <r>    0.6433    0.0000 </r>
       <r>    0.6851    0.0000 </r>
       <r>    0.6887    0.0000 </r>
       <r>    0.8622    0.0000 </r>
       <r>    0.8856    0.0000 </r>
       <r>    1.0226    0.0000 </r>
       <r>    1.0418    0.0000 </r>
       <r>    1.1725    0.0000 </r>
       <r>    1.2445    0.0000 </r>
       <r>    1.3596    0.0000 </r>
       <r>    1.3775    0.0000 </r>
       <r>    1.4544    0.0000 </r>
       <r>    1.5351    0.0000 </r>
       <r>    1.5653    0.0000 </r>
       <r>    1.5695    0.0000 </r>
       <r>    1.6047    0.0000 </r>
       <r>    1.6729    0.0000 </r>
       <r>    1.7215    0.0000 </r>
       <r>    1.7758    0.0000 </r>
       <r>    1.7806    0.0000 </r>
       <r>    1.8206    0.0000 </r>
       <r>    1.9165    0.0000 </r>
      </set>
      <set comment="kpoint 6">
       <r>  -25.7338    1.0000 </r>
       <r>  -25.6853    1.0000 </r>
       <r>  -24.4813    1.0000 </r>
       <r>  -24.4738    1.0000 </r>
       <r>  -24.3145    1.0000 </r>
       <r>  -22.8985    1.0000 </r>
       <r>  -22.8874    1.0000 </r>
       <r>  -22.5461    1.0000 </r>
       <r>  -22.4943    1.0000 </r>
       <r>  -22.4302    1.0000 </r>
       <r>  -22.2597    1.0000 </r>
       <r>  -22.2569    1.0000 </r>
       <r>  -19.8758    1.0000 </r>
       <r>  -19.8704    1.0000 </r>
       <r>  -19.7398    1.0000 </r>
       <r>  -18.0732    1.0000 </r>
       <r>  -18.0534    1.0000 </r>
       <r>  -17.7804    1.0000 </r>
       <r>  -17.7778    1.0000 </r>
       <r>  -17.6414    1.0000 </r>
       <r>  -16.9233    1.0000 </r>
       <r>  -16.3257    1.0000 </r>
       <r>  -16.2185    1.0000 </r>
       <r>  -15.4535    1.0000 </r>
       <r>  -15.3855    1.0000 </r>
       <r>  -15.3845    1.0000 </r>
       <r>  -14.7518    1.0000 </r>
       <r>  -14.7143    1.0000 </r>
       <r>  -13.8505    1.0000 </r>
       <r>  -13.8002    1.0000 </r>
       <r>  -13.2997    1.0000 </r>
       <r>  -13.2743    1.0000 </r>
       <r>  -12.9908    1.0000 </r>
       <r>  -12.9782    1.0000 </r>
       <r>  -12.8787    1.0000 </r>
       <r>  -12.0156    1.0000 </r>
       <r>  -11.9832    1.0000 </r>
       <r>  -11.1227    1.0000 </r>
       <r>  -11.0768    1.0000 </r>
       <r>  -11.0649    1.0000 </r>
       <r>  -10.7859    1.0000 </r>
       <r>  -10.6501    1.0000 </r>
       <r>  -10.6421    1.0000 </r>
       <r>  -10.5666    1.0000 </r>
       <r>  -10.5100    1.0000 </r>
       <r>  -10.0915    1.0000 </r>
       <r>  -10.0494    1.0000 </r>
       <r>   -9.8735    1.0000 </r>
       <r>   -9.5700    1.0000 </r>
       <r>   -9.5685    1.0000 </r>
       <r>   -9.4643    1.0000 </r>
       <r>   -9.4270    1.0000 </r>
       <r>   -9.4142    1.0000 </r>
       <r>   -9.3769    1.0000 </r>
       <r>   -9.1431    1.0000 </r>
       <r>   -9.1251    1.0000 </r>
       <r>   -8.8343    1.0000 </r>
       <r>   -8.6298    1.0000 </r>
       <r>   -8.1119    1.0000 </r>
       <r>   -8.1113    1.0000 </r>
       <r>   -8.0798    1.0000 </r>
       <r>   -8.0789    1.0000 </r>
       <r>   -7.8790    1.0000 </r>
       <r>   -7.8769    1.0000 </r>
       <r>   -7.8476    1.0000 </r>
       <r>   -6.8634    1.0000 </r>
       <r>   -6.8258    1.0000 </r>
       <r>   -6.8212    1.0000 </r>
       <r>   -6.5751    1.0000 </r>
       <r>   -6.5689    1.0000 </r>
       <r>   -6.2891    1.0000 </r>
       <r>   -6.1930    1.0000 </r>
       <r>   -6.1830    1.0000 </r>
       <r>   -6.1137    1.0000 </r>
       <r>   -6.1112    1.0000 </r>
       <r>   -5.5963    1.0000 </r>
       <r>   -5.3984    1.0000 </r>
       <r>   -5.3888    1.0000 </r>
       <r>   -2.4648    0.0000 </r>
       <r>   -2.4641    0.0000 </r>
       <r>   -2.3903    0.0000 </r>
       <r>   -2.3884    0.0000 </r>
       <r>   -2.0651    0.0000 </r>
       <r>   -2.0230    0.0000 </r>
       <r>   -2.0174    0.0000 </r>
       <r>   -1.5511    0.0000 </r>
       <r>   -1.5444    0.0000 </r>
       <r>   -1.2876    0.0000 </r>
       <r>   -0.2180    0.0000 </r>
       <r>    0.1356    0.0000 </r>
       <r>    0.6232    0.0000 </r>
       <r>    0.6793    0.0000 </r>
       <r>    0.6911    0.0000 </r>
       <r>    0.8571    0.0000 </r>
       <r>    0.8985    0.0000 </r>
       <r>    1.0286    0.0000 </r>
       <r>    1.0552    0.0000 </r>
       <r>    1.1567    0.0000 </r>
       <r>    1.2483    0.0000 </r>
       <r>    1.3635    0.0000 </r>
       <r>    1.3886    0.0000 </r>
       <r>    1.4453    0.0000 </r>
       <r>    1.5221    0.0000 </r>
       <r>    1.5629    0.0000 </r>
       <r>    1.5633    0.0000 </r>
       <r>    1.6091    0.0000 </r>
       <r>    1.6578    0.0000 </r>
       <r>    1.7259    0.0000 </r>
       <r>    1.7802    0.0000 </r>
       <r>    1.7839    0.0000 </r>
       <r>    1.8476    0.0000 </r>
       <r>    1.9307    0.0000 </r>
      </set>
      <set comment="kpoint 7">
       <r>  -25.7333    1.0000 </r>
       <r>  -25.6859    1.0000 </r>
       <r>  -24.4813    1.0000 </r>
       <r>  -24.4712    1.0000 </r>
       <r>  -24.3175    1.0000 </r>
       <r>  -22.8985    1.0000 </r>
       <r>  -22.8828    1.0000 </r>
       <r>  -22.5586    1.0000 </r>
       <r>  -22.4943    1.0000 </r>
       <r>  -22.4204    1.0000 </r>
       <r>  -22.2611    1.0000 </r>
       <r>  -22.2569    1.0000 </r>
       <r>  -19.8758    1.0000 </r>
       <r>  -19.8686    1.0000 </r>
       <r>  -19.7426    1.0000 </r>
       <r>  -18.0733    1.0000 </r>
       <r>  -18.0450    1.0000 </r>
       <r>  -17.7820    1.0000 </r>
       <r>  -17.7777    1.0000 </r>
       <r>  -17.6380    1.0000 </r>
       <r>  -16.9575    1.0000 </r>
       <r>  -16.3256    1.0000 </r>
       <r>  -16.1814    1.0000 </r>
       <r>  -15.4537    1.0000 </r>
       <r>  -15.3858    1.0000 </r>
       <r>  -15.3845    1.0000 </r>
       <r>  -14.7685    1.0000 </r>
       <r>  -14.7144    1.0000 </r>
       <r>  -13.8500    1.0000 </r>
       <r>  -13.8007    1.0000 </r>
       <r>  -13.2972    1.0000 </r>
       <r>  -13.2716    1.0000 </r>
       <r>  -12.9961    1.0000 </r>
       <r>  -12.9782    1.0000 </r>
       <r>  -12.8768    1.0000 </r>
       <r>  -12.0162    1.0000 </r>
       <r>  -11.9707    1.0000 </r>
       <r>  -11.1328    1.0000 </r>
       <r>  -11.0723    1.0000 </r>
       <r>  -11.0588    1.0000 </r>
       <r>  -10.7897    1.0000 </r>
       <r>  -10.6558    1.0000 </r>
       <r>  -10.6450    1.0000 </r>
       <r>  -10.5677    1.0000 </r>
       <r>  -10.5098    1.0000 </r>
       <r>  -10.1033    1.0000 </r>
       <r>  -10.0502    1.0000 </r>
       <r>   -9.8543    1.0000 </r>
       <r>   -9.5715    1.0000 </r>
       <r>   -9.5694    1.0000 </r>
       <r>   -9.4674    1.0000 </r>
       <r>   -9.4280    1.0000 </r>
       <r>   -9.4112    1.0000 </r>
       <r>   -9.3745    1.0000 </r>
       <r>   -9.1496    1.0000 </r>
       <r>   -9.1234    1.0000 </r>
       <r>   -8.8285    1.0000 </r>
       <r>   -8.6323    1.0000 </r>
       <r>   -8.1103    1.0000 </r>
       <r>   -8.1100    1.0000 </r>
       <r>   -8.0797    1.0000 </r>
       <r>   -8.0786    1.0000 </r>
       <r>   -7.8806    1.0000 </r>
       <r>   -7.8779    1.0000 </r>
       <r>   -7.8483    1.0000 </r>
       <r>   -6.8627    1.0000 </r>
       <r>   -6.8264    1.0000 </r>
       <r>   -6.8211    1.0000 </r>
       <r>   -6.5735    1.0000 </r>
       <r>   -6.5645    1.0000 </r>
       <r>   -6.2967    1.0000 </r>
       <r>   -6.1978    1.0000 </r>
       <r>   -6.1837    1.0000 </r>
       <r>   -6.1117    1.0000 </r>
       <r>   -6.1078    1.0000 </r>
       <r>   -5.5923    1.0000 </r>
       <r>   -5.4015    1.0000 </r>
       <r>   -5.3889    1.0000 </r>
       <r>   -2.4709    0.0000 </r>
       <r>   -2.4701    0.0000 </r>
       <r>   -2.3825    0.0000 </r>
       <r>   -2.3800    0.0000 </r>
       <r>   -2.0646    0.0000 </r>
       <r>   -2.0255    0.0000 </r>
       <r>   -2.0172    0.0000 </r>
       <r>   -1.5515    0.0000 </r>
       <r>   -1.5420    0.0000 </r>
       <r>   -1.2932    0.0000 </r>
       <r>   -0.2139    0.0000 </r>
       <r>    0.1365    0.0000 </r>
       <r>    0.6027    0.0000 </r>
       <r>    0.6730    0.0000 </r>
       <r>    0.6936    0.0000 </r>
       <r>    0.8511    0.0000 </r>
       <r>    0.9117    0.0000 </r>
       <r>    1.0344    0.0000 </r>
       <r>    1.0670    0.0000 </r>
       <r>    1.1466    0.0000 </r>
       <r>    1.2542    0.0000 </r>
       <r>    1.3556    0.0000 </r>
       <r>    1.4014    0.0000 </r>
       <r>    1.4388    0.0000 </r>
       <r>    1.5091    0.0000 </r>
       <r>    1.5561    0.0000 </r>
       <r>    1.5638    0.0000 </r>
       <r>    1.6200    0.0000 </r>
       <r>    1.6445    0.0000 </r>
       <r>    1.7283    0.0000 </r>
       <r>    1.7806    0.0000 </r>
       <r>    1.7937    0.0000 </r>
       <r>    1.8682    0.0000 </r>
       <r>    1.9352    0.0000 </r>
      </set>
      <set comment="kpoint 8">
       <r>  -25.7327    1.0000 </r>
       <r>  -25.6866    1.0000 </r>
       <r>  -24.4813    1.0000 </r>
       <r>  -24.4682    1.0000 </r>
       <r>  -24.3210    1.0000 </r>
       <r>  -22.8985    1.0000 </r>
       <r>  -22.8774    1.0000 </r>
       <r>  -22.5712    1.0000 </r>
       <r>  -22.4943    1.0000 </r>
       <r>  -22.4109    1.0000 </r>
       <r>  -22.2628    1.0000 </r>
       <r>  -22.2569    1.0000 </r>
       <r>  -19.8758    1.0000 </r>
       <r>  -19.8664    1.0000 </r>
       <r>  -19.7458    1.0000 </r>
       <r>  -18.0733    1.0000 </r>
       <r>  -18.0354    1.0000 </r>
       <r>  -17.7838    1.0000 </r>
       <r>  -17.7777    1.0000 </r>
       <r>  -17.6339    1.0000 </r>
       <r>  -16.9934    1.0000 </r>
       <r>  -16.3255    1.0000 </r>
       <r>  -16.1422    1.0000 </r>
       <r>  -15.4540    1.0000 </r>
       <r>  -15.3861    1.0000 </r>
       <r>  -15.3845    1.0000 </r>
       <r>  -14.7874    1.0000 </r>
       <r>  -14.7145    1.0000 </r>
       <r>  -13.8495    1.0000 </r>
       <r>  -13.8013    1.0000 </r>
       <r>  -13.2949    1.0000 </r>
       <r>  -13.2682    1.0000 </r>
       <r>  -13.0018    1.0000 </r>
       <r>  -12.9782    1.0000 </r>
       <r>  -12.8750    1.0000 </r>
       <r>  -12.0169    1.0000 </r>
       <r>  -11.9563    1.0000 </r>
       <r>  -11.1442    1.0000 </r>
       <r>  -11.0671    1.0000 </r>
       <r>  -11.0522    1.0000 </r>
       <r>  -10.7942    1.0000 </r>
       <r>  -10.6620    1.0000 </r>
       <r>  -10.6483    1.0000 </r>
       <r>  -10.5689    1.0000 </r>
       <r>  -10.5096    1.0000 </r>
       <r>  -10.1144    1.0000 </r>
       <r>  -10.0510    1.0000 </r>
       <r>   -9.8347    1.0000 </r>
       <r>   -9.5733    1.0000 </r>
       <r>   -9.5703    1.0000 </r>
       <r>   -9.4703    1.0000 </r>
       <r>   -9.4292    1.0000 </r>
       <r>   -9.4083    1.0000 </r>
       <r>   -9.3717    1.0000 </r>
       <r>   -9.1568    1.0000 </r>
       <r>   -9.1215    1.0000 </r>
       <r>   -8.8220    1.0000 </r>
       <r>   -8.6352    1.0000 </r>
       <r>   -8.1085    1.0000 </r>
       <r>   -8.1084    1.0000 </r>
       <r>   -8.0795    1.0000 </r>
       <r>   -8.0783    1.0000 </r>
       <r>   -7.8824    1.0000 </r>
       <r>   -7.8791    1.0000 </r>
       <r>   -7.8490    1.0000 </r>
       <r>   -6.8619    1.0000 </r>
       <r>   -6.8271    1.0000 </r>
       <r>   -6.8210    1.0000 </r>
       <r>   -6.5717    1.0000 </r>
       <r>   -6.5593    1.0000 </r>
       <r>   -6.3053    1.0000 </r>
       <r>   -6.2029    1.0000 </r>
       <r>   -6.1842    1.0000 </r>
       <r>   -6.1096    1.0000 </r>
       <r>   -6.1043    1.0000 </r>
       <r>   -5.5876    1.0000 </r>
       <r>   -5.4051    1.0000 </r>
       <r>   -5.3890    1.0000 </r>
       <r>   -2.4767    0.0000 </r>
       <r>   -2.4757    0.0000 </r>
       <r>   -2.3748    0.0000 </r>
       <r>   -2.3717    0.0000 </r>
       <r>   -2.0642    0.0000 </r>
       <r>   -2.0284    0.0000 </r>
       <r>   -2.0170    0.0000 </r>
       <r>   -1.5519    0.0000 </r>
       <r>   -1.5390    0.0000 </r>
       <r>   -1.2997    0.0000 </r>
       <r>   -0.2093    0.0000 </r>
       <r>    0.1375    0.0000 </r>
       <r>    0.5825    0.0000 </r>
       <r>    0.6663    0.0000 </r>
       <r>    0.6960    0.0000 </r>
       <r>    0.8460    0.0000 </r>
       <r>    0.9229    0.0000 </r>
       <r>    1.0395    0.0000 </r>
       <r>    1.0743    0.0000 </r>
       <r>    1.1454    0.0000 </r>
       <r>    1.2624    0.0000 </r>
       <r>    1.3402    0.0000 </r>
       <r>    1.4107    0.0000 </r>
       <r>    1.4327    0.0000 </r>
       <r>    1.5014    0.0000 </r>
       <r>    1.5476    0.0000 </r>
       <r>    1.5690    0.0000 </r>
       <r>    1.6335    0.0000 </r>
       <r>    1.6346    0.0000 </r>
       <r>    1.7284    0.0000 </r>
       <r>    1.7826    0.0000 </r>
       <r>    1.8047    0.0000 </r>
       <r>    1.8806    0.0000 </r>
       <r>    1.9345    0.0000 </r>
      </set>
      <set comment="kpoint 9">
       <r>  -25.7320    1.0000 </r>
       <r>  -25.6874    1.0000 </r>
       <r>  -24.4813    1.0000 </r>
       <r>  -24.4649    1.0000 </r>
       <r>  -24.3249    1.0000 </r>
       <r>  -22.8985    1.0000 </r>
       <r>  -22.8714    1.0000 </r>
       <r>  -22.5839    1.0000 </r>
       <r>  -22.4943    1.0000 </r>
       <r>  -22.4018    1.0000 </r>
       <r>  -22.2647    1.0000 </r>
       <r>  -22.2569    1.0000 </r>
       <r>  -19.8758    1.0000 </r>
       <r>  -19.8639    1.0000 </r>
       <r>  -19.7495    1.0000 </r>
       <r>  -18.0734    1.0000 </r>
       <r>  -18.0247    1.0000 </r>
       <r>  -17.7860    1.0000 </r>
       <r>  -17.7777    1.0000 </r>
       <r>  -17.6291    1.0000 </r>
       <r>  -17.0302    1.0000 </r>
       <r>  -16.3254    1.0000 </r>
       <r>  -16.1020    1.0000 </r>
       <r>  -15.4545    1.0000 </r>
       <r>  -15.3864    1.0000 </r>
       <r>  -15.3845    1.0000 </r>
       <r>  -14.8083    1.0000 </r>
       <r>  -14.7147    1.0000 </r>
       <r>  -13.8489    1.0000 </r>
       <r>  -13.8019    1.0000 </r>
       <r>  -13.2929    1.0000 </r>
       <r>  -13.2641    1.0000 </r>
       <r>  -13.0080    1.0000 </r>
       <r>  -12.9782    1.0000 </r>
       <r>  -12.8732    1.0000 </r>
       <r>  -12.0176    1.0000 </r>
       <r>  -11.9404    1.0000 </r>
       <r>  -11.1569    1.0000 </r>
       <r>  -11.0615    1.0000 </r>
       <r>  -11.0449    1.0000 </r>
       <r>  -10.7994    1.0000 </r>
       <r>  -10.6686    1.0000 </r>
       <r>  -10.6521    1.0000 </r>
       <r>  -10.5701    1.0000 </r>
       <r>  -10.5093    1.0000 </r>
       <r>  -10.1247    1.0000 </r>
       <r>  -10.0520    1.0000 </r>
       <r>   -9.8151    1.0000 </r>
       <r>   -9.5754    1.0000 </r>
       <r>   -9.5713    1.0000 </r>
       <r>   -9.4731    1.0000 </r>
       <r>   -9.4303    1.0000 </r>
       <r>   -9.4056    1.0000 </r>
       <r>   -9.3686    1.0000 </r>
       <r>   -9.1646    1.0000 </r>
       <r>   -9.1195    1.0000 </r>
       <r>   -8.8151    1.0000 </r>
       <r>   -8.6386    1.0000 </r>
       <r>   -8.1069    1.0000 </r>
       <r>   -8.1064    1.0000 </r>
       <r>   -8.0793    1.0000 </r>
       <r>   -8.0779    1.0000 </r>
       <r>   -7.8843    1.0000 </r>
       <r>   -7.8804    1.0000 </r>
       <r>   -7.8498    1.0000 </r>
       <r>   -6.8609    1.0000 </r>
       <r>   -6.8278    1.0000 </r>
       <r>   -6.8209    1.0000 </r>
       <r>   -6.5697    1.0000 </r>
       <r>   -6.5533    1.0000 </r>
       <r>   -6.3146    1.0000 </r>
       <r>   -6.2081    1.0000 </r>
       <r>   -6.1847    1.0000 </r>
       <r>   -6.1077    1.0000 </r>
       <r>   -6.1009    1.0000 </r>
       <r>   -5.5824    1.0000 </r>
       <r>   -5.4091    1.0000 </r>
       <r>   -5.3890    1.0000 </r>
       <r>   -2.4821    0.0000 </r>
       <r>   -2.4809    0.0000 </r>
       <r>   -2.3673    0.0000 </r>
       <r>   -2.3634    0.0000 </r>
       <r>   -2.0638    0.0000 </r>
       <r>   -2.0316    0.0000 </r>
       <r>   -2.0167    0.0000 </r>
       <r>   -1.5523    0.0000 </r>
       <r>   -1.5356    0.0000 </r>
       <r>   -1.3068    0.0000 </r>
       <r>   -0.2041    0.0000 </r>
       <r>    0.1383    0.0000 </r>
       <r>    0.5629    0.0000 </r>
       <r>    0.6595    0.0000 </r>
       <r>    0.6980    0.0000 </r>
       <r>    0.8424    0.0000 </r>
       <r>    0.9308    0.0000 </r>
       <r>    1.0436    0.0000 </r>
       <r>    1.0763    0.0000 </r>
       <r>    1.1543    0.0000 </r>
       <r>    1.2733    0.0000 </r>
       <r>    1.3201    0.0000 </r>
       <r>    1.4105    0.0000 </r>
       <r>    1.4310    0.0000 </r>
       <r>    1.4995    0.0000 </r>
       <r>    1.5390    0.0000 </r>
       <r>    1.5766    0.0000 </r>
       <r>    1.6264    0.0000 </r>
       <r>    1.6514    0.0000 </r>
       <r>    1.7265    0.0000 </r>
       <r>    1.7859    0.0000 </r>
       <r>    1.8167    0.0000 </r>
       <r>    1.8866    0.0000 </r>
       <r>    1.9322    0.0000 </r>
      </set>
      <set comment="kpoint 10">
       <r>  -25.7313    1.0000 </r>
       <r>  -25.6883    1.0000 </r>
       <r>  -24.4813    1.0000 </r>
       <r>  -24.4611    1.0000 </r>
       <r>  -24.3292    1.0000 </r>
       <r>  -22.8985    1.0000 </r>
       <r>  -22.8648    1.0000 </r>
       <r>  -22.5966    1.0000 </r>
       <r>  -22.4943    1.0000 </r>
       <r>  -22.3930    1.0000 </r>
       <r>  -22.2668    1.0000 </r>
       <r>  -22.2569    1.0000 </r>
       <r>  -19.8758    1.0000 </r>
       <r>  -19.8612    1.0000 </r>
       <r>  -19.7534    1.0000 </r>
       <r>  -18.0734    1.0000 </r>
       <r>  -18.0132    1.0000 </r>
       <r>  -17.7885    1.0000 </r>
       <r>  -17.7777    1.0000 </r>
       <r>  -17.6234    1.0000 </r>
       <r>  -17.0671    1.0000 </r>
       <r>  -16.3253    1.0000 </r>
       <r>  -16.0614    1.0000 </r>
       <r>  -15.4550    1.0000 </r>
       <r>  -15.3868    1.0000 </r>
       <r>  -15.3845    1.0000 </r>
       <r>  -14.8306    1.0000 </r>
       <r>  -14.7148    1.0000 </r>
       <r>  -13.8483    1.0000 </r>
       <r>  -13.8026    1.0000 </r>
       <r>  -13.2912    1.0000 </r>
       <r>  -13.2592    1.0000 </r>
       <r>  -13.0143    1.0000 </r>
       <r>  -12.9782    1.0000 </r>
       <r>  -12.8716    1.0000 </r>
       <r>  -12.0184    1.0000 </r>
       <r>  -11.9232    1.0000 </r>
       <r>  -11.1707    1.0000 </r>
       <r>  -11.0554    1.0000 </r>
       <r>  -11.0371    1.0000 </r>
       <r>  -10.8051    1.0000 </r>
       <r>  -10.6752    1.0000 </r>
       <r>  -10.6564    1.0000 </r>
       <r>  -10.5712    1.0000 </r>
       <r>  -10.5092    1.0000 </r>
       <r>  -10.1340    1.0000 </r>
       <r>  -10.0529    1.0000 </r>
       <r>   -9.7956    1.0000 </r>
       <r>   -9.5780    1.0000 </r>
       <r>   -9.5724    1.0000 </r>
       <r>   -9.4757    1.0000 </r>
       <r>   -9.4314    1.0000 </r>
       <r>   -9.4030    1.0000 </r>
       <r>   -9.3652    1.0000 </r>
       <r>   -9.1729    1.0000 </r>
       <r>   -9.1174    1.0000 </r>
       <r>   -8.8077    1.0000 </r>
       <r>   -8.6423    1.0000 </r>
       <r>   -8.1053    1.0000 </r>
       <r>   -8.1042    1.0000 </r>
       <r>   -8.0791    1.0000 </r>
       <r>   -8.0775    1.0000 </r>
       <r>   -7.8864    1.0000 </r>
       <r>   -7.8819    1.0000 </r>
[...]
       <r>   -2.4308    0.0000 </r>
       <r>   -2.4274    0.0000 </r>
       <r>   -2.4269    0.0000 </r>
       <r>   -2.0664    0.0000 </r>
       <r>   -2.0178    0.0000 </r>
       <r>   -2.0169    0.0000 </r>
       <r>   -1.5502    0.0000 </r>
       <r>   -1.5499    0.0000 </r>
       <r>   -1.2743    0.0000 </r>
       <r>   -0.2276    0.0000 </r>
       <r>    0.1329    0.0000 </r>
       <r>    0.6817    0.0000 </r>
       <r>    0.6964    0.0000 </r>
       <r>    0.6970    0.0000 </r>
       <r>    0.8356    0.0000 </r>
       <r>    0.8888    0.0000 </r>
       <r>    1.0088    0.0000 </r>
       <r>    1.0089    0.0000 </r>
       <r>    1.2402    0.0000 </r>
       <r>    1.2403    0.0000 </r>
       <r>    1.2921    0.0000 </r>
       <r>    1.3681    0.0000 </r>
       <r>    1.4845    0.0000 </r>
       <r>    1.5513    0.0000 </r>
       <r>    1.5529    0.0000 </r>
       <r>    1.6168    0.0000 </r>
       <r>    1.6175    0.0000 </r>
       <r>    1.6961    0.0000 </r>
       <r>    1.7227    0.0000 </r>
       <r>    1.7521    0.0000 </r>
       <r>    1.7551    0.0000 </r>
       <r>    1.8166    0.0000 </r>
       <r>    1.8467    0.0000 </r>
      </set>
     </set>
    </set>
   </array>
  </eigenvalues>
  <separator name="orbital magnetization" >
   <v name="MAGDIPOLOUT">      0.00000000      0.00000000      0.00000000</v>
  </separator>
  <dos>
   <i name="efermi">     -5.34008949 </i>
   <total>
    <array>
     <dimension dim="1">gridpoints</dimension>
     <dimension dim="2">spin</dimension>
     <field>energy</field>
     <field>total</field>
     <field>integrated</field>
     <set>
      <set comment="spin 1">
       <r>   -27.1214     0.0000     0.0000 </r>
       <r>   -27.0197     0.0000     0.0000 </r>
       <r>   -26.9181     0.0000     0.0000 </r>
       <r>   -26.8164     0.0000     0.0000 </r>
       <r>   -26.7147     0.0000     0.0000 </r>
       <r>   -26.6131     0.0000     0.0000 </r>
       <r>   -26.5114     0.0000     0.0000 </r>
       <r>   -26.4097     0.0000     0.0000 </r>
       <r>   -26.3081     0.0000     0.0000 </r>
       <r>   -26.2064     0.0000     0.0000 </r>
       <r>   -26.1047     0.0000     0.0000 </r>
       <r>   -26.0031     0.0000     0.0000 </r>
       <r>   -25.9014     0.0000     0.0000 </r>
       <r>   -25.7998     0.0000     0.0000 </r>
       <r>   -25.6981    24.1634     2.4565 </r>
       <r>   -25.5964     0.0000     4.0000 </r>
       <r>   -25.4948     0.0000     4.0000 </r>
       <r>   -25.3931     0.0000     4.0000 </r>
       <r>   -25.2914     0.0000     4.0000 </r>
       <r>   -25.1898     0.0000     4.0000 </r>
       <r>   -25.0881     0.0000     4.0000 </r>
       <r>   -24.9865     0.0000     4.0000 </r>
       <r>   -24.8848     0.0000     4.0000 </r>
       <r>   -24.7831     0.0000     4.0000 </r>
       <r>   -24.6815     0.0000     4.0000 </r>
       <r>   -24.5798     0.0000     4.0000 </r>
       <r>   -24.4781    14.9442     5.5193 </r>
       <r>   -24.3765    18.2631     8.5234 </r>
       <r>   -24.2748     9.1802    10.0000 </r>
       <r>   -24.1732     0.0000    10.0000 </r>
       <r>   -24.0715     0.0000    10.0000 </r>
       <r>   -23.9698     0.0000    10.0000 </r>
       <r>   -23.8682     0.0000    10.0000 </r>
       <r>   -23.7665     0.0000    10.0000 </r>
       <r>   -23.6648     0.0000    10.0000 </r>
       <r>   -23.5632     0.0000    10.0000 </r>
       <r>   -23.4615     0.0000    10.0000 </r>
       <r>   -23.3598     0.0000    10.0000 </r>
       <r>   -23.2582     0.0000    10.0000 </r>
       <r>   -23.1565     0.0000    10.0000 </r>
       <r>   -23.0549     0.0000    10.0000 </r>
       <r>   -22.9532     0.0000    10.0000 </r>
       <r>   -22.8515    26.5847    12.7027 </r>
       <r>   -22.7499    11.0183    13.9868 </r>
       <r>   -22.6482     9.3236    15.1479 </r>
       <r>   -22.5465     3.8107    15.6541 </r>
       <r>   -22.4449    24.4821    18.2556 </r>
       <r>   -22.3432     7.2327    19.1020 </r>
       <r>   -22.2416    41.6155    23.9642 </r>
       <r>   -22.1399     0.0000    24.0000 </r>
       <r>   -22.0382     0.0000    24.0000 </r>
       <r>   -21.9366     0.0000    24.0000 </r>
       <r>   -21.8349     0.0000    24.0000 </r>
       <r>   -21.7332     0.0000    24.0000 </r>
       <r>   -21.6316     0.0000    24.0000 </r>
       <r>   -21.5299     0.0000    24.0000 </r>
       <r>   -21.4283     0.0000    24.0000 </r>
       <r>   -21.3266     0.0000    24.0000 </r>
       <r>   -21.2249     0.0000    24.0000 </r>
       <r>   -21.1233     0.0000    24.0000 </r>
       <r>   -21.0216     0.0000    24.0000 </r>
       <r>   -20.9199     0.0000    24.0000 </r>
       <r>   -20.8183     0.0000    24.0000 </r>
       <r>   -20.7166     0.0000    24.0000 </r>
       <r>   -20.6149     0.0000    24.0000 </r>
       <r>   -20.5133     0.0000    24.0000 </r>
       <r>   -20.4116     0.0000    24.0000 </r>
       <r>   -20.3100     0.0000    24.0000 </r>
       <r>   -20.2083     0.0000    24.0000 </r>
       <r>   -20.1066     0.0000    24.0000 </r>
       <r>   -20.0050     0.0000    24.0000 </r>
       <r>   -19.9033     0.0009    24.0001 </r>
       <r>   -19.8016    42.4108    28.3117 </r>
       <r>   -19.7000     9.5082    30.0000 </r>
       <r>   -19.5983     0.0000    30.0000 </r>
       <r>   -19.4967     0.0000    30.0000 </r>
       <r>   -19.3950     0.0000    30.0000 </r>
       <r>   -19.2933     0.0000    30.0000 </r>
       <r>   -19.1917     0.0000    30.0000 </r>
       <r>   -19.0900     0.0000    30.0000 </r>
       <r>   -18.9883     0.0000    30.0000 </r>
       <r>   -18.8867     0.0000    30.0000 </r>
       <r>   -18.7850     0.0000    30.0000 </r>
       <r>   -18.6834     0.0000    30.0000 </r>
       <r>   -18.5817     0.0000    30.0000 </r>
       <r>   -18.4800     0.0000    30.0000 </r>
       <r>   -18.3784     0.0000    30.0000 </r>
       <r>   -18.2767     0.0000    30.0000 </r>
       <r>   -18.1750     0.0000    30.0000 </r>
       <r>   -18.0734    11.1216    31.1307 </r>
       <r>   -17.9717     4.2313    32.7968 </r>
       <r>   -17.8700    10.6678    33.9845 </r>
       <r>   -17.7684    37.0512    37.7667 </r>
       <r>   -17.6667     0.0108    38.0011 </r>
       <r>   -17.5651     7.2718    39.0060 </r>
       <r>   -17.4634     6.5196    39.9962 </r>
       <r>   -17.3617     4.4908    40.4565 </r>
       <r>   -17.2601     4.4945    41.0569 </r>
       <r>   -17.1584     1.5245    41.2550 </r>
       <r>   -17.0567     1.2876    41.4309 </r>
       <r>   -16.9551     1.5925    41.5952 </r>
       <r>   -16.8534     1.7200    41.8082 </r>
       <r>   -16.7518     1.3113    42.0000 </r>
       <r>   -16.6501     0.0000    42.0000 </r>
       <r>   -16.5484     0.0000    42.0000 </r>
       <r>   -16.4468     0.0000    42.0000 </r>
       <r>   -16.3451     0.0402    42.0041 </r>
       <r>   -16.2434     4.2444    44.2984 </r>
       <r>   -16.1418     1.3807    44.4737 </r>
       <r>   -16.0401     1.2929    44.6314 </r>
       <r>   -15.9385     1.2368    44.7924 </r>
       <r>   -15.8368     1.7221    44.9751 </r>
       <r>   -15.7351     6.4756    45.6917 </r>
       <r>   -15.6335     0.0000    46.0000 </r>
       <r>   -15.5318     0.0000    46.0000 </r>
       <r>   -15.4301    19.6699    47.9997 </r>
       <r>   -15.3285    39.3457    52.0000 </r>
       <r>   -15.2268     0.0000    52.0000 </r>
       <r>   -15.1251     0.0000    52.0000 </r>
       <r>   -15.0235     4.9981    52.5081 </r>
       <r>   -14.9218     2.6827    53.1727 </r>
       <r>   -14.8202     1.9879    53.4354 </r>
       <r>   -14.7185     9.7505    54.4913 </r>
       <r>   -14.6168     0.0000    56.0000 </r>
       <r>   -14.5152     0.0000    56.0000 </r>
       <r>   -14.4135     0.0000    56.0000 </r>
       <r>   -14.3118     0.0000    56.0000 </r>
       <r>   -14.2102     0.0000    56.0000 </r>
       <r>   -14.1085     0.0000    56.0000 </r>
       <r>   -14.0069     0.0000    56.0000 </r>
       <r>   -13.9052     0.0000    56.0000 </r>
       <r>   -13.8035    31.1226    59.1640 </r>
       <r>   -13.7019     0.0000    60.0000 </r>
       <r>   -13.6002     0.0000    60.0000 </r>
       <r>   -13.4985     0.0000    60.0000 </r>
       <r>   -13.3969     0.0000    60.0000 </r>
       <r>   -13.2952     5.5148    60.5606 </r>
       <r>   -13.1936    15.8514    63.9782 </r>
       <r>   -13.0919     0.0129    64.0013 </r>
       <r>   -12.9902    14.3776    65.7618 </r>
       <r>   -12.8886     0.7622    68.0775 </r>
       <r>   -12.7869    11.8006    70.0000 </r>
       <r>   -12.6852     0.0000    70.0000 </r>
       <r>   -12.5836     0.0000    70.0000 </r>
       <r>   -12.4819     0.0000    70.0000 </r>
       <r>   -12.3802     0.0000    70.0000 </r>
       <r>   -12.2786     0.0000    70.0000 </r>
       <r>   -12.1769     0.0000    70.0000 </r>
       <r>   -12.0753     0.0000    70.0000 </r>
       <r>   -11.9736    23.5275    72.3919 </r>
       <r>   -11.8719     2.5670    72.7610 </r>
       <r>   -11.7703     6.0195    73.4120 </r>
       <r>   -11.6686     3.9340    74.0000 </r>
       <r>   -11.5669     0.0000    74.0000 </r>
       <r>   -11.4653     0.0000    74.0000 </r>
       <r>   -11.3636     0.1847    74.0188 </r>
       <r>   -11.2620     7.4314    75.0555 </r>
       <r>   -11.1603     3.1859    75.4572 </r>
       <r>   -11.0586    13.6552    76.9549 </r>
       <r>   -10.9570    20.5437    79.4219 </r>
       <r>   -10.8553    11.4537    80.9644 </r>
       <r>   -10.7536     8.5240    81.9999 </r>
       <r>   -10.6520    30.6211    85.1131 </r>
       <r>   -10.5503    19.5813    87.9907 </r>
       <r>   -10.4487    19.6729    90.0000 </r>
       <r>   -10.3470     0.0000    90.0000 </r>
       <r>   -10.2453     0.0000    90.0000 </r>
       <r>   -10.1437    13.0960    91.3314 </r>
       <r>   -10.0420    23.2166    93.8603 </r>
       <r>    -9.9403     0.3124    94.0318 </r>
       <r>    -9.8387     2.5007    94.4542 </r>
       <r>    -9.7370     2.8379    94.7885 </r>
       <r>    -9.6353     7.9489    95.6748 </r>
       <r>    -9.5337    31.1482   100.0000 </r>
       <r>    -9.4320    32.5791   103.3121 </r>
       <r>    -9.3304    28.7678   107.3580 </r>
       <r>    -9.2287     9.7097   108.9871 </r>
       <r>    -9.1270     9.3437   110.1499 </r>
       <r>    -9.0254    10.4901   112.0000 </r>
       <r>    -8.9237     0.0000   112.0000 </r>
       <r>    -8.8220     4.5844   112.4661 </r>
       <r>    -8.7204    12.7224   113.9268 </r>
       <r>    -8.6187    17.1012   115.9386 </r>
       <r>    -8.5171     0.0000   116.0000 </r>
       <r>    -8.4154     0.0000   116.0000 </r>
       <r>    -8.3137     0.0000   116.0000 </r>
       <r>    -8.2121     0.0000   116.0000 </r>
       <r>    -8.1104     7.2440   116.7364 </r>
       <r>    -8.0087    50.1583   124.0000 </r>
       <r>    -7.9071     5.2805   124.5368 </r>
       <r>    -7.8054    38.0300   130.0000 </r>
       <r>    -7.7038     0.0000   130.0000 </r>
       <r>    -7.6021     0.0000   130.0000 </r>
       <r>    -7.5004     0.0000   130.0000 </r>
       <r>    -7.3988     0.0000   130.0000 </r>
       <r>    -7.2971     0.0000   130.0000 </r>
       <r>    -7.1954     0.0000   130.0000 </r>
       <r>    -7.0938     0.0000   130.0000 </r>
       <r>    -6.9921     0.0000   130.0000 </r>
       <r>    -6.8904     0.0005   130.0001 </r>
       <r>    -6.7888    59.0180   136.0000 </r>
       <r>    -6.6871     0.0000   136.0000 </r>
       <r>    -6.5855     0.9388   136.0954 </r>
       <r>    -6.4838    19.3395   139.0662 </r>
       <r>    -6.3821    13.5633   141.0789 </r>
       <r>    -6.2805     6.0589   141.8160 </r>
       <r>    -6.1788    23.8220   144.9885 </r>
       <r>    -6.0771    32.4478   149.2987 </r>
       <r>    -5.9755     0.0000   150.0000 </r>
       <r>    -5.8738     0.0000   150.0000 </r>
       <r>    -5.7722     0.0000   150.0000 </r>
       <r>    -5.6705     0.0000   150.0000 </r>
       <r>    -5.5688     6.6042   150.6714 </r>
       <r>    -5.4672    15.9465   152.4879 </r>
       <r>    -5.3655    28.8471   155.9993 </r>
       <r>    -5.2638     0.0000   156.0000 </r>
       <r>    -5.1622     0.0000   156.0000 </r>
       <r>    -5.0605     0.0000   156.0000 </r>
       <r>    -4.9589     0.0000   156.0000 </r>
       <r>    -4.8572     0.0000   156.0000 </r>
       <r>    -4.7555     0.0000   156.0000 </r>
       <r>    -4.6539     0.0000   156.0000 </r>
       <r>    -4.5522     0.0000   156.0000 </r>
       <r>    -4.4505     0.0000   156.0000 </r>
       <r>    -4.3489     0.0000   156.0000 </r>
       <r>    -4.2472     0.0000   156.0000 </r>
       <r>    -4.1455     0.0000   156.0000 </r>
       <r>    -4.0439     0.0000   156.0000 </r>
       <r>    -3.9422     0.0000   156.0000 </r>
       <r>    -3.8406     0.0000   156.0000 </r>
       <r>    -3.7389     0.0000   156.0000 </r>
       <r>    -3.6372     0.0000   156.0000 </r>
       <r>    -3.5356     0.0000   156.0000 </r>
       <r>    -3.4339     0.0000   156.0000 </r>
       <r>    -3.3322     0.0000   156.0000 </r>
       <r>    -3.2306     0.0000   156.0000 </r>
       <r>    -3.1289     0.0000   156.0000 </r>
       <r>    -3.0273     0.0000   156.0000 </r>
       <r>    -2.9256     0.0000   156.0000 </r>
       <r>    -2.8239     0.0000   156.0000 </r>
       <r>    -2.7223     0.0000   156.0000 </r>
       <r>    -2.6206     0.0000   156.0000 </r>
       <r>    -2.5189     8.9887   156.9138 </r>
       <r>    -2.4173    25.1968   160.2949 </r>
       <r>    -2.3156    18.3723   162.8345 </r>
       <r>    -2.2140     7.8690   164.0000 </r>
       <r>    -2.1123     0.0000   164.0000 </r>
       <r>    -2.0106    55.0987   169.6015 </r>
       <r>    -1.9090     0.0000   170.0000 </r>
       <r>    -1.8073     0.0000   170.0000 </r>
       <r>    -1.7056     0.0000   170.0000 </r>
       <r>    -1.6040     0.0000   170.0000 </r>
       <r>    -1.5023    29.1229   172.9607 </r>
       <r>    -1.4007     7.7517   174.3214 </r>
       <r>    -1.2990     5.9859   175.5419 </r>
       <r>    -1.1973     1.9663   176.0000 </r>
       <r>    -1.0957     0.0000   176.0000 </r>
       <r>    -0.9940     0.0000   176.0000 </r>
       <r>    -0.8923     0.0000   176.0000 </r>
       <r>    -0.7907     0.0000   176.0000 </r>
       <r>    -0.6890     0.0000   176.0000 </r>
       <r>    -0.5873     0.0000   176.0000 </r>
       <r>    -0.4857     0.0000   176.0000 </r>
       <r>    -0.3840     0.0000   176.0000 </r>
       <r>    -0.2824     0.0000   176.0000 </r>
       <r>    -0.1807     7.6893   176.7817 </r>
       <r>    -0.0790     9.5075   178.0000 </r>
       <r>     0.0226     0.0000   178.0000 </r>
       <r>     0.1243     0.8121   178.0826 </r>
       <r>     0.2260     0.0000   180.0000 </r>
       <r>     0.3276     0.0000   180.0000 </r>
       <r>     0.4293     0.0029   180.0003 </r>
       <r>     0.5309    14.0293   181.4265 </r>
       <r>     0.6326    10.7115   182.9890 </r>
       <r>     0.7343    27.2047   185.9991 </r>
       <r>     0.8359     0.8288   186.0843 </r>
       <r>     0.9376    25.6185   189.1046 </r>
       <r>     1.0393    17.4344   191.5392 </r>
       <r>     1.1409    13.7262   194.0622 </r>
       <r>     1.2426    22.0247   196.7059 </r>
       <r>     1.3442    21.0337   199.3718 </r>
       <r>     1.4459    33.8798   203.2112 </r>
       <r>     1.5476    25.3883   206.5145 </r>
       <r>     1.6492    24.2870   210.9026 </r>
       <r>     1.7509    37.2414   214.9861 </r>
       <r>     1.8526    36.4807   219.6088 </r>
       <r>     1.9542    29.2264   223.3047 </r>
       <r>     2.0559     3.2782   224.0000 </r>
       <r>     2.1576     0.0000   224.0000 </r>
       <r>     2.2592     0.0000   224.0000 </r>
       <r>     2.3609     0.0000   224.0000 </r>
       <r>     2.4625     0.0000   224.0000 </r>
       <r>     2.5642     0.0000   224.0000 </r>
       <r>     2.6659     0.0000   224.0000 </r>
       <r>     2.7675     0.0000   224.0000 </r>
       <r>     2.8692     0.0000   224.0000 </r>
       <r>     2.9709     0.0000   224.0000 </r>
       <r>     3.0725     0.0000   224.0000 </r>
       <r>     3.1742     0.0000   224.0000 </r>
       <r>     3.2758     0.0000   224.0000 </r>
       <r>     3.3775     0.0000   224.0000 </r>
      </set>
     </set>
    </array>
   </total>
  </dos>
 </calculation>
 <structure name="finalpos" >
  <crystal>
   <varray name="basis" >
    <v>      14.30793963      -0.00089086       0.00000000 </v>
    <v>       7.15316100      12.39150616       0.00000000 </v>
    <v>       0.00000000       0.00000000      20.00000000 </v>
   </varray>
   <i name="volume">   3546.06589044 </i>
   <varray name="rec_basis" >
    <v>       0.06988875      -0.04034421       0.00000000 </v>
    <v>       0.00000502       0.08069754       0.00000000 </v>
    <v>       0.00000000       0.00000000       0.05000000 </v>
   </varray>
  </crystal>
  <varray name="positions" >
   <v>       0.97411742       0.54193844       0.68155700 </v>
   <v>       0.86201507       0.53606650       0.64679767 </v>
   <v>       0.86201057       0.65997612       0.64685189 </v>
   <v>       0.54193844       0.97411742       0.68155700 </v>
   <v>       0.65997612       0.86201057       0.64685189 </v>
   <v>       0.53606650       0.86201507       0.64679767 </v>
   <v>       0.54185188       0.54185188       0.68150909 </v>
   <v>       0.53596963       0.65987667       0.64681587 </v>
   <v>       0.65987667       0.53596963       0.64681587 </v>
   <v>       0.10898032       0.47443907       0.40592046 </v>
   <v>       0.47443907       0.10898032       0.40592046 </v>
   <v>       0.47453723       0.47453723       0.40582630 </v>
   <v>       0.57478561       0.74160875       0.51389706 </v>
   <v>       0.74160875       0.57478561       0.51389706 </v>
   <v>       0.74160704       0.74160704       0.51380939 </v>
   <v>       0.46391316       0.29705085       0.51417913 </v>
   <v>       0.29705085       0.46391316       0.51417913 </v>
   <v>       0.29705664       0.29705664       0.51431370 </v>
   <v>       0.07789699       0.49012907       0.57411313 </v>
   <v>       0.49012907       0.07789699       0.57411313 </v>
   <v>       0.48998879       0.48998879       0.57404469 </v>
   <v>       0.96060135       0.54864139       0.45435236 </v>
   <v>       0.54864139       0.96060135       0.45435236 </v>
   <v>       0.54874558       0.54874558       0.45424621 </v>
   <v>       0.63341955       0.79117016       0.51348608 </v>
   <v>       0.63341294       0.63341294       0.51351067 </v>
   <v>       0.79117016       0.63341955       0.51348608 </v>
   <v>       0.40523371       0.24754263       0.51452494 </v>
   <v>       0.40522788       0.40522788       0.51441579 </v>
   <v>       0.24754263       0.40523371       0.51452494 </v>
   <v>       0.96965931       0.54423252       0.57484663 </v>
   <v>       0.91199668       0.57301057       0.51398179 </v>
   <v>       0.91393087       0.57207323       0.64145226 </v>
   <v>       0.54423252       0.96965931       0.57484663 </v>
   <v>       0.57301057       0.91199668       0.51398179 </v>
   <v>       0.57207323       0.91393087       0.64145226 </v>
   <v>       0.54412272       0.54412272       0.57478842 </v>
   <v>       0.57299162       0.57299162       0.51393396 </v>
   <v>       0.57196332       0.57196332       0.64141705 </v>
   <v>       0.12675005       0.46564077       0.51434058 </v>
   <v>       0.06858329       0.49467403       0.45447580 </v>
   <v>       0.46564077       0.12675005       0.51434058 </v>
   <v>       0.49467403       0.06858329       0.45447580 </v>
   <v>       0.46562363       0.46562363       0.51422917 </v>
   <v>       0.49473942       0.49473942       0.45437902 </v>
  </varray>
 </structure>
</modeling>
