<?xml version="1.0" encoding="ISO-8859-1"?>
<modeling>
 <generator>
  <i name="program" type="string">vasp </i>
  <i name="version" type="string">5.4.4.18Apr17-6-g9f103f2a35  </i>
  <i name="subversion" type="string">(build Jun 07 2020 16:50:00) complex            parallel </i>
  <i name="platform" type="string">LinuxIFC </i>
  <i name="date" type="string">2023 02 11 </i>
  <i name="time" type="string">22:27:10 </i>
 </generator>
 <incar>
  <i type="string" name="SYSTEM">Simulation for cell shape cell volume r</i>
  <i type="int" name="ISTART">     1</i>
  <i type="string" name="PREC">high</i>
  <i type="string" name="ALGO">48</i>
  <i type="int" name="ICHARG">    11</i>
  <i type="int" name="NELM">   200</i>
  <i type="int" name="IBRION">    -1</i>
  <i name="EDIFF">      0.00001000</i>
  <i name="EDIFFG">     -0.01000000</i>
  <i type="int" name="NSW">     0</i>
  <i type="int" name="ISIF">     2</i>
  <i name="ENCUT">    500.00000000</i>
  <i name="POTIM">      0.30000000</i>
  <i type="string" name="LREAL">A</i>
  <i type="int" name="ISMEAR">     0</i>
  <i name="SIGMA">      0.01000000</i>
  <i type="int" name="NWRITE">     0</i>
  <i type="logical" name="LWAVE"> F  </i>
  <i type="logical" name="LCHARG"> F  </i>
  <v type="int" name="KPOINT_BSE">    -1     0     0     0</v>
  <i type="int" name="NELM">   200</i>
  <i type="string" name="GGA">PE</i>
 </incar>
 <structure name="primitive_cell" >
  <crystal>
   <varray name="basis" >
    <v>      14.29136500       0.00189923       0.00000000 </v>
    <v>       7.14732728      12.37573553       0.00000000 </v>
    <v>      -0.00000000       0.00000000      20.00000000 </v>
   </varray>
   <i name="volume">   3537.05158297 </i>
   <varray name="rec_basis" >
    <v>       0.06997769      -0.04041404       0.00000000 </v>
    <v>      -0.00001074       0.08080948      -0.00000000 </v>
    <v>       0.00000000       0.00000000       0.05000000 </v>
   </varray>
  </crystal>
  <varray name="positions" >
   <v>       0.30856158       0.30856158      -0.48344470 </v>
   <v>       0.41711598       0.25856712      -0.48395769 </v>
   <v>       0.25856712       0.41711598      -0.48395769 </v>
   <v>       0.47569341       0.30852870      -0.48354418 </v>
   <v>       0.30852870       0.47569341      -0.48354418 </v>
   <v>       0.13777844       0.47751676      -0.48068820 </v>
   <v>       0.47751676       0.13777844      -0.48068820 </v>
   <v>       0.41709550       0.41709550      -0.48400256 </v>
   <v>       0.43569098       0.22133476      -0.35756068 </v>
   <v>       0.22133476       0.43569098      -0.35756068 </v>
   <v>       0.08576708      -0.49639378       0.46077443 </v>
   <v>      -0.49639378       0.08576708       0.46077443 </v>
   <v>      -0.49604871       0.08487670      -0.41774483 </v>
   <v>       0.08487670      -0.49604871      -0.41774483 </v>
   <v>       0.47657610       0.13991855      -0.35859976 </v>
   <v>       0.13991855       0.47657610      -0.35859976 </v>
   <v>       0.43575224       0.43575224      -0.35762834 </v>
   <v>       0.47748255       0.47748255      -0.48074927 </v>
   <v>       0.49625101       0.10014574      -0.31448434 </v>
   <v>       0.10014574       0.49625101      -0.31448434 </v>
   <v>      -0.02184901      -0.44255568       0.45841331 </v>
   <v>      -0.44255568      -0.02184901       0.45841331 </v>
   <v>      -0.02796235      -0.43971614      -0.42058525 </v>
   <v>      -0.43971614      -0.02796235      -0.42058525 </v>
   <v>       0.47644816       0.47644816      -0.35866733 </v>
   <v>      -0.07639594      -0.41544177      -0.48329242 </v>
   <v>      -0.41544177      -0.07639594      -0.48329242 </v>
   <v>      -0.49650550      -0.49650550       0.46071656 </v>
   <v>      -0.49605739      -0.49605739      -0.41781491 </v>
   <v>      -0.41542750      -0.07659814      -0.37503274 </v>
   <v>      -0.07659814      -0.41542750      -0.37503274 </v>
   <v>       0.49631582       0.49631582      -0.31454459 </v>
   <v>      -0.44269607      -0.44269607       0.45836612 </v>
   <v>      -0.43965808      -0.43965808      -0.42064212 </v>
   <v>      -0.19715843      -0.35509482      -0.48761201 </v>
   <v>      -0.35509482      -0.19715843      -0.48761201 </v>
   <v>      -0.41543728      -0.41543728      -0.48333388 </v>
   <v>      -0.24672428      -0.41384420      -0.48744346 </v>
   <v>      -0.41384420      -0.24672428      -0.48744346 </v>
   <v>      -0.41535070      -0.41535070      -0.37509352 </v>
   <v>      -0.24675508      -0.24675508      -0.48740508 </v>
   <v>      -0.35506885      -0.35506885      -0.48764065 </v>
  </varray>
 </structure>
 <varray name="primitive_index" >
  <v type="int" >        1 </v>
  <v type="int" >       26 </v>
  <v type="int" >       25 </v>
  <v type="int" >        2 </v>
  <v type="int" >        3 </v>
  <v type="int" >       38 </v>
  <v type="int" >       42 </v>
  <v type="int" >       27 </v>
  <v type="int" >       23 </v>
  <v type="int" >       20 </v>
  <v type="int" >       12 </v>
  <v type="int" >       14 </v>
  <v type="int" >       41 </v>
  <v type="int" >       37 </v>
  <v type="int" >        9 </v>
  <v type="int" >        8 </v>
  <v type="int" >       17 </v>
  <v type="int" >       34 </v>
  <v type="int" >       22 </v>
  <v type="int" >       19 </v>
  <v type="int" >       13 </v>
  <v type="int" >       15 </v>
  <v type="int" >       36 </v>
  <v type="int" >       40 </v>
  <v type="int" >        7 </v>
  <v type="int" >       35 </v>
  <v type="int" >       39 </v>
  <v type="int" >       10 </v>
  <v type="int" >       33 </v>
  <v type="int" >       24 </v>
  <v type="int" >       21 </v>
  <v type="int" >       16 </v>
  <v type="int" >       11 </v>
  <v type="int" >       32 </v>
  <v type="int" >       28 </v>
  <v type="int" >       29 </v>
  <v type="int" >       31 </v>
  <v type="int" >        6 </v>
  <v type="int" >        5 </v>
  <v type="int" >       18 </v>
  <v type="int" >        4 </v>
  <v type="int" >       30 </v>
 </varray>
 <kpoints>
  <generation param="listgenerated">
   <i name="divisions" type="int">      20 </i>
   <v>       0.00000000       0.00000000       0.00000000 </v>
   <v>       0.50000000       0.50000000       0.00000000 </v>
   <v>       0.33333333       0.66666667       0.00000000 </v>
   <v>       0.00000000       0.00000000       0.00000000 </v>
  </generation>
  <varray name="kpointlist" >
   <v>       0.00000000       0.00000000       0.00000000 </v>
   <v>       0.02631579       0.02631579       0.00000000 </v>
   <v>       0.05263158       0.05263158       0.00000000 </v>
   <v>       0.07894737       0.07894737       0.00000000 </v>
   <v>       0.10526316       0.10526316       0.00000000 </v>
   <v>       0.13157895       0.13157895       0.00000000 </v>
   <v>       0.15789474       0.15789474       0.00000000 </v>
   <v>       0.18421053       0.18421053       0.00000000 </v>
   <v>       0.21052632       0.21052632       0.00000000 </v>
   <v>       0.23684211       0.23684211       0.00000000 </v>
   <v>       0.26315789       0.26315789       0.00000000 </v>
   <v>       0.28947368       0.28947368       0.00000000 </v>
   <v>       0.31578947       0.31578947       0.00000000 </v>
   <v>       0.34210526       0.34210526       0.00000000 </v>
   <v>       0.36842105       0.36842105       0.00000000 </v>
   <v>       0.39473684       0.39473684       0.00000000 </v>
   <v>       0.42105263       0.42105263       0.00000000 </v>
   <v>       0.44736842       0.44736842       0.00000000 </v>
   <v>       0.47368421       0.47368421       0.00000000 </v>
   <v>       0.50000000       0.50000000       0.00000000 </v>
   <v>       0.50000000       0.50000000       0.00000000 </v>
   <v>       0.49122807       0.50877193       0.00000000 </v>
   <v>       0.48245614       0.51754386       0.00000000 </v>
   <v>       0.47368421       0.52631579       0.00000000 </v>
   <v>       0.46491228       0.53508772       0.00000000 </v>
   <v>       0.45614035       0.54385965       0.00000000 </v>
   <v>       0.44736842       0.55263158       0.00000000 </v>
   <v>       0.43859649       0.56140351       0.00000000 </v>
   <v>       0.42982456       0.57017544       0.00000000 </v>
   <v>       0.42105263       0.57894737       0.00000000 </v>
   <v>       0.41228070       0.58771930       0.00000000 </v>
   <v>       0.40350877       0.59649123       0.00000000 </v>
   <v>       0.39473684       0.60526316       0.00000000 </v>
   <v>       0.38596491       0.61403509       0.00000000 </v>
   <v>       0.37719298       0.62280702       0.00000000 </v>
   <v>       0.36842105       0.63157895       0.00000000 </v>
   <v>       0.35964912       0.64035088       0.00000000 </v>
   <v>       0.35087719       0.64912281       0.00000000 </v>
   <v>       0.34210526       0.65789474       0.00000000 </v>
   <v>       0.33333333       0.66666667       0.00000000 </v>
   <v>       0.33333333       0.66666667       0.00000000 </v>
   <v>       0.31578947       0.63157895       0.00000000 </v>
   <v>       0.29824561       0.59649123       0.00000000 </v>
   <v>       0.28070175       0.56140351       0.00000000 </v>
   <v>       0.26315789       0.52631579       0.00000000 </v>
   <v>       0.24561404       0.49122807       0.00000000 </v>
   <v>       0.22807018       0.45614035       0.00000000 </v>
   <v>       0.21052632       0.42105263       0.00000000 </v>
   <v>       0.19298246       0.38596491       0.00000000 </v>
   <v>       0.17543860       0.35087719       0.00000000 </v>
   <v>       0.15789474       0.31578947       0.00000000 </v>
   <v>       0.14035088       0.28070175       0.00000000 </v>
   <v>       0.12280702       0.24561404       0.00000000 </v>
   <v>       0.10526316       0.21052632       0.00000000 </v>
   <v>       0.08771930       0.17543860       0.00000000 </v>
   <v>       0.07017544       0.14035088       0.00000000 </v>
   <v>       0.05263158       0.10526316       0.00000000 </v>
   <v>       0.03508772       0.07017544       0.00000000 </v>
   <v>       0.01754386       0.03508772       0.00000000 </v>
   <v>       0.00000000       0.00000000       0.00000000 </v>
  </varray>
  <varray name="weights" >
   <v>       0.01666667 </v>
   <v>       0.01666667 </v>
   <v>       0.01666667 </v>
   <v>       0.01666667 </v>
   <v>       0.01666667 </v>
   <v>       0.01666667 </v>
   <v>       0.01666667 </v>
   <v>       0.01666667 </v>
   <v>       0.01666667 </v>
   <v>       0.01666667 </v>
   <v>       0.01666667 </v>
   <v>       0.01666667 </v>
   <v>       0.01666667 </v>
   <v>       0.01666667 </v>
   <v>       0.01666667 </v>
   <v>       0.01666667 </v>
   <v>       0.01666667 </v>
   <v>       0.01666667 </v>
   <v>       0.01666667 </v>
   <v>       0.01666667 </v>
   <v>       0.01666667 </v>
   <v>       0.01666667 </v>
   <v>       0.01666667 </v>
   <v>       0.01666667 </v>
   <v>       0.01666667 </v>
   <v>       0.01666667 </v>
   <v>       0.01666667 </v>
   <v>       0.01666667 </v>
   <v>       0.01666667 </v>
   <v>       0.01666667 </v>
   <v>       0.01666667 </v>
   <v>       0.01666667 </v>
   <v>       0.01666667 </v>
   <v>       0.01666667 </v>
   <v>       0.01666667 </v>
   <v>       0.01666667 </v>
   <v>       0.01666667 </v>
   <v>       0.01666667 </v>
   <v>       0.01666667 </v>
   <v>       0.01666667 </v>
   <v>       0.01666667 </v>
   <v>       0.01666667 </v>
   <v>       0.01666667 </v>
   <v>       0.01666667 </v>
   <v>       0.01666667 </v>
   <v>       0.01666667 </v>
   <v>       0.01666667 </v>
   <v>       0.01666667 </v>
   <v>       0.01666667 </v>
   <v>       0.01666667 </v>
   <v>       0.01666667 </v>
   <v>       0.01666667 </v>
   <v>       0.01666667 </v>
   <v>       0.01666667 </v>
   <v>       0.01666667 </v>
   <v>       0.01666667 </v>
   <v>       0.01666667 </v>
   <v>       0.01666667 </v>
   <v>       0.01666667 </v>
   <v>       0.01666667 </v>
  </varray>
 </kpoints>
 <parameters>
  <separator name="general" >
   <i type="string" name="SYSTEM">Simulation for cell shape cell volume r</i>
   <i type="logical" name="LCOMPAT"> F  </i>
  </separator>
  <separator name="electronic" >
   <i type="string" name="PREC">high</i>
   <i name="ENMAX">    500.00000000</i>
   <i name="ENAUG">    644.87300000</i>
   <i name="EDIFF">      0.00001000</i>
   <i type="int" name="IALGO">    38</i>
   <i type="int" name="IWAVPR">    10</i>
   <i type="int" name="NBANDS">   112</i>
   <i name="NELECT">    156.00000000</i>
   <i type="int" name="TURBO">     0</i>
   <i type="int" name="IRESTART">     0</i>
   <i type="int" name="NREBOOT">     0</i>
   <i type="int" name="NMIN">     0</i>
   <i name="EREF">      0.00000000</i>
   <separator name="electronic smearing" >
    <i type="int" name="ISMEAR">     0</i>
    <i name="SIGMA">      0.01000000</i>
    <i name="KSPACING">      0.50000000</i>
    <i type="logical" name="KGAMMA"> T  </i>
   </separator>
   <separator name="electronic projectors" >
    <i type="logical" name="LREAL"> T  </i>
    <v name="ROPT">     -0.00040000     -0.00040000     -0.00040000</v>
    <i type="int" name="LMAXPAW">  -100</i>
    <i type="int" name="LMAXMIX">     2</i>
    <i type="logical" name="NLSPLINE"> F  </i>
   </separator>
   <separator name="electronic startup" >
    <i type="int" name="ISTART">     1</i>
    <i type="int" name="ICHARG">    11</i>
    <i type="int" name="INIWAV">     1</i>
   </separator>
   <separator name="electronic spin" >
    <i type="int" name="ISPIN">     1</i>
    <i type="logical" name="LNONCOLLINEAR"> F  </i>
    <v name="MAGMOM">      1.00000000      1.00000000      1.00000000      1.00000000      1.00000000      1.00000000      1.00000000      1.00000000      1.00000000      1.00000000      1.00000000      1.00000000      1.00000000      1.00000000      1.00000000      1.00000000      1.00000000      1.00000000      1.00000000      1.00000000
      1.00000000      1.00000000      1.00000000      1.00000000      1.00000000      1.00000000      1.00000000      1.00000000      1.00000000      1.00000000      1.00000000      1.00000000      1.00000000      1.00000000      1.00000000      1.00000000      1.00000000      1.00000000      1.00000000      1.00000000
      1.00000000      1.00000000</v>
    <i name="NUPDOWN">     -1.00000000</i>
    <i type="logical" name="LSORBIT"> F  </i>
    <v name="SAXIS">      0.00000000      0.00000000      1.00000000</v>
    <i type="logical" name="LSPIRAL"> F  </i>
    <v name="QSPIRAL">      0.00000000      0.00000000      0.00000000</v>
    <i type="logical" name="LZEROZ"> F  </i>
   </separator>
   <separator name="electronic exchange-correlation" >
    <i type="logical" name="LASPH"> F  </i>
    <i type="logical" name="LMETAGGA"> F  </i>
   </separator>
   <separator name="electronic convergence" >
    <i type="int" name="NELM">   200</i>
    <i type="int" name="NELMDL">     0</i>
    <i type="int" name="NELMIN">     2</i>
    <i name="ENINI">    500.00000000</i>
    <separator name="electronic convergence detail" >
     <i type="logical" name="LDIAG"> T  </i>
     <i type="logical" name="LSUBROT"> F  </i>
     <i name="WEIMIN">      0.00000000</i>
     <i name="EBREAK">      0.00000002</i>
     <i name="DEPER">      0.30000000</i>
     <i type="int" name="NRMM">     4</i>
     <i name="TIME">      0.40000000</i>
    </separator>
   </separator>
   <separator name="electronic mixer" >
    <i name="AMIX">      0.40000000</i>
    <i name="BMIX">      1.00000000</i>
    <i name="AMIN">      0.10000000</i>
    <i name="AMIX_MAG">      1.60000000</i>
    <i name="BMIX_MAG">      1.00000000</i>
    <separator name="electronic mixer details" >
     <i type="int" name="IMIX">     4</i>
     <i type="logical" name="MIXFIRST"> F  </i>
     <i type="int" name="MAXMIX">   -45</i>
     <i name="WC">    100.00000000</i>
     <i type="int" name="INIMIX">     1</i>
     <i type="int" name="MIXPRE">     1</i>
     <i type="int" name="MREMOVE">     5</i>
    </separator>
   </separator>
   <separator name="electronic dipolcorrection" >
    <i type="logical" name="LDIPOL"> F  </i>
    <i type="logical" name="LMONO"> F  </i>
    <i type="int" name="IDIPOL">     0</i>
    <i name="EPSILON">      1.00000000</i>
    <v name="DIPOL">   -100.00000000   -100.00000000   -100.00000000</v>
    <i name="EFIELD">      0.00000000</i>
   </separator>
  </separator>
  <separator name="grids" >
   <i type="int" name="NGX">   108</i>
   <i type="int" name="NGY">   108</i>
   <i type="int" name="NGZ">   150</i>
   <i type="int" name="NGXF">   160</i>
   <i type="int" name="NGYF">   160</i>
   <i type="int" name="NGZF">   224</i>
   <i type="logical" name="ADDGRID"> F  </i>
  </separator>
  <separator name="ionic" >
   <i type="int" name="NSW">     0</i>
   <i type="int" name="IBRION">    -1</i>
   <i type="int" name="MDALGO">     0</i>
   <i type="int" name="ISIF">     2</i>
   <i name="PSTRESS">      0.00000000</i>
   <i name="EDIFFG">     -0.01000000</i>
   <i type="int" name="NFREE">     0</i>
   <i name="POTIM">      0.30000000</i>
   <i name="SMASS">     -3.00000000</i>
   <i name="SCALEE">      1.00000000</i>
  </separator>
  <separator name="ionic md" >
   <i name="TEBEG">      0.00010000</i>
   <i name="TEEND">      0.00010000</i>
   <i type="int" name="NBLOCK">     1</i>
   <i type="int" name="KBLOCK">     1</i>
   <i type="int" name="NPACO">   256</i>
   <i name="APACO">     16.00000000</i>
  </separator>
  <separator name="symmetry" >
   <i type="int" name="ISYM">     2</i>
   <i name="SYMPREC">      0.00001000</i>
  </separator>
  <separator name="dos" >
   <i type="int" name="LORBIT">     0</i>
   <v name="RWIGS">     -1.00000000     -1.00000000     -1.00000000</v>
   <i type="int" name="NEDOS">   301</i>
   <i name="EMIN">     10.00000000</i>
   <i name="EMAX">    -10.00000000</i>
   <i name="EFERMI">      0.00000000</i>
  </separator>
  <separator name="writing" >
   <i type="int" name="NWRITE">     0</i>
   <i type="logical" name="LWAVE"> F  </i>
   <i type="logical" name="LDOWNSAMPLE"> F  </i>
   <i type="logical" name="LCHARG"> F  </i>
   <i type="logical" name="LPARD"> F  </i>
   <i type="logical" name="LVTOT"> F  </i>
   <i type="logical" name="LVHAR"> F  </i>
   <i type="logical" name="LELF"> F  </i>
   <i type="logical" name="LOPTICS"> F  </i>
   <v name="STM">      0.00000000      0.00000000      0.00000000      0.00000000      0.00000000      0.00000000      0.00000000</v>
  </separator>
  <separator name="performance" >
   <i type="int" name="NPAR">    16</i>
   <i type="int" name="NSIM">     4</i>
   <i type="int" name="NBLK">    -1</i>
   <i type="logical" name="LPLANE"> T  </i>
   <i type="logical" name="LSCALAPACK"> T  </i>
   <i type="logical" name="LSCAAWARE"> F  </i>
   <i type="logical" name="LSCALU"> F  </i>
   <i type="logical" name="LASYNC"> F  </i>
   <i type="logical" name="LORBITALREAL"> F  </i>
  </separator>
  <separator name="miscellaneous" >
   <i type="int" name="IDIOT">     3</i>
   <i type="int" name="ISPECIAL">     0</i>
   <i type="logical" name="LMUSIC"> F  </i>
   <v name="POMASS">     14.00100000      1.00000000     12.01100000</v>
   <v name="DARWINR">      0.00000000      0.00000000      0.00000000</v>
   <v name="DARWINV">      1.00000000      1.00000000      1.00000000</v>
   <i type="logical" name="LCORR"> T  </i>
  </separator>
  <i type="logical" name="GGA_COMPAT"> T  </i>
  <i type="logical" name="LBERRY"> F  </i>
  <i type="int" name="ICORELEVEL">     0</i>
  <i type="logical" name="LDAU"> F  </i>
  <i type="int" name="I_CONSTRAINED_M">     0</i>
  <separator name="electronic exchange-correlation" >
   <i type="string" name="GGA">PE</i>
   <i type="int" name="VOSKOWN">     0</i>
   <i type="logical" name="LHFCALC"> F  </i>
   <i type="string" name="PRECFOCK"></i>
   <i type="logical" name="LSYMGRAD"> F  </i>
   <i type="logical" name="LHFONE"> F  </i>
   <i type="logical" name="LRHFCALC"> F  </i>
   <i type="logical" name="LTHOMAS"> F  </i>
   <i type="logical" name="LMODELHF"> F  </i>
   <i name="ENCUT4O">     -1.00000000</i>
   <i type="int" name="EXXOEP">     0</i>
   <i type="int" name="FOURORBIT">     0</i>
   <i name="AEXX">      0.00000000</i>
   <i name="HFALPHA">      0.00000000</i>
   <i name="MCALPHA">      0.00000000</i>
   <i name="ALDAX">      1.00000000</i>
   <i name="AGGAX">      1.00000000</i>
   <i name="ALDAC">      1.00000000</i>
   <i name="AGGAC">      1.00000000</i>
   <i type="int" name="NKREDX">     1</i>
   <i type="int" name="NKREDY">     1</i>
   <i type="int" name="NKREDZ">     1</i>
   <i type="logical" name="SHIFTRED"> F  </i>
   <i type="logical" name="ODDONLY"> F  </i>
   <i type="logical" name="EVENONLY"> F  </i>
   <i type="int" name="LMAXFOCK">     0</i>
   <i type="int" name="NMAXFOCKAE">     0</i>
   <i type="logical" name="LFOCKAEDFT"> F  </i>
   <i name="HFSCREEN">      0.00000000</i>
   <i name="HFSCREENC">      0.00000000</i>
   <i type="int" name="NBANDSGWLOW">     0</i>
  </separator>
  <separator name="vdW DFT" >
   <i type="logical" name="LUSE_VDW"> F  </i>
   <i name="Zab_VDW">     -0.84910000</i>
   <i name="PARAM1">      0.12340000</i>
   <i name="PARAM2">      1.00000000</i>
   <i name="PARAM3">      0.00000000</i>
  </separator>
  <separator name="model GW" >
   <i type="int" name="MODEL_GW">     0</i>
   <i name="MODEL_EPS0">     50.52930833</i>
   <i name="MODEL_ALPHA">      1.00000000</i>
  </separator>
  <separator name="linear response parameters" >
   <i type="logical" name="LEPSILON"> F  </i>
   <i type="logical" name="LRPA"> F  </i>
   <i type="logical" name="LNABLA"> F  </i>
   <i type="logical" name="LVEL"> F  </i>
   <i type="int" name="KINTER">     0</i>
   <i name="CSHIFT">      0.10000000</i>
   <i name="OMEGAMAX">     -1.00000000</i>
   <i name="DEG_THRESHOLD">      0.00200000</i>
   <i name="RTIME">     -0.10000000</i>
   <i name="WPLASMAI">      0.00000000</i>
   <v name="DFIELD">      0.00000000      0.00000000      0.00000000</v>
   <v name="WPLASMA">      0.00000000      0.00000000      0.00000000      0.00000000      0.00000000      0.00000000      0.00000000      0.00000000      0.00000000</v>
  </separator>
  <separator name="orbital magnetization" >
   <i type="logical" name="NUCIND"> F  </i>
   <v name="MAGPOS">      0.00000000      0.00000000      0.00000000</v>
   <i type="logical" name="LNICSALL"> T  </i>
   <i type="logical" name="ORBITALMAG"> F  </i>
   <i type="logical" name="LMAGBLOCH"> F  </i>
   <i type="logical" name="LCHIMAG"> F  </i>
   <i type="logical" name="LGAUGE"> T  </i>
   <i type="int" name="MAGATOM">     0</i>
   <v name="MAGDIPOL">      0.00000000      0.00000000      0.00000000</v>
   <v name="AVECCONST">      0.00000000      0.00000000      0.00000000</v>
  </separator>
  <separator name="response functions" >
   <i type="logical" name="LADDER"> F  </i>
   <i type="logical" name="LRPAFORCE"> F  </i>
   <i type="logical" name="LFXC"> F  </i>
   <i type="logical" name="LHARTREE"> T  </i>
   <i type="int" name="IBSE">     0</i>
   <v type="int" name="KPOINT">    -1     0     0     0</v>
   <i type="logical" name="LTCTE"> F  </i>
   <i type="logical" name="LTETE"> F  </i>
   <i type="logical" name="LTRIPLET"> F  </i>
   <i type="logical" name="LFXCEPS"> F  </i>
   <i type="logical" name="LFXHEG"> F  </i>
   <i type="int" name="NATURALO">     2</i>
   <i type="logical" name="L2ORDER"> F  </i>
   <i type="logical" name="LMP2LT"> F  </i>
   <i type="logical" name="LUSEW"> F  </i>
   <i name="ENCUTGW">     -2.00000000</i>
   <i name="ENCUTGWSOFT">     -2.00000000</i>
   <i name="ENCUTLF">     -1.00000000</i>
   <i type="int" name="LMAXMP2">    -1</i>
   <i name="SCISSOR">      0.00000000</i>
   <i type="int" name="NOMEGA">     0</i>
   <i type="int" name="NOMEGAR">     0</i>
   <i type="int" name="NBANDSGW">    -1</i>
   <i type="int" name="NBANDSO">    -1</i>
   <i type="int" name="NBANDSV">    -1</i>
   <i type="int" name="NELM">   200</i>
   <i type="int" name="NELMHF">     1</i>
   <i type="int" name="DIM">     3</i>
   <i type="int" name="ANTIRES">     0</i>
   <i name="OMEGAMAX">    -30.00000000</i>
   <i name="OMEGAMIN">    -30.00000000</i>
   <i name="OMEGATL">   -200.00000000</i>
   <i type="int" name="OMEGAGRID">   140</i>
   <i name="CSHIFT">     -0.10000000</i>
   <i type="logical" name="SELFENERGY"> F  </i>
   <i type="logical" name="LSPECTRAL"> F  </i>
   <i type="logical" name="LSPECTRALGW"> F  </i>
   <i type="logical" name="LSINGLES"> F  </i>
   <i type="logical" name="LFERMIGW"> F  </i>
   <i type="logical" name="ODDONLYGW"> F  </i>
   <i type="logical" name="EVENONLYGW"> F  </i>
   <i type="int" name="NKREDLFX">     1</i>
   <i type="int" name="NKREDLFY">     1</i>
   <i type="int" name="NKREDLFZ">     1</i>
   <i type="int" name="MAXMEM">  2800</i>
   <i type="int" name="TELESCOPE">     0</i>
   <i type="int" name="TAUPAR">     1</i>
   <i type="int" name="OMEGAPAR">    -1</i>
   <i name="LAMBDA">      1.00000000</i>
  </separator>
  <separator name="External order field" >
   <i name="OFIELD_KAPPA">      0.00000000</i>
   <v name="OFIELD_K">      0.00000000      0.00000000      0.00000000</v>
   <i name="OFIELD_Q6_NEAR">      0.00000000</i>
   <i name="OFIELD_Q6_FAR">      0.00000000</i>
   <i name="OFIELD_A">      0.00000000</i>
  </separator>
  <separator name="solvation model" >
   <i type="logical" name="LSOL"> F  </i>
  </separator>
 </parameters>
 <atominfo>
  <atoms>      42 </atoms>
  <types>       3 </types>
  <array name="atoms" >
   <dimension dim="1">ion</dimension>
   <field type="string">element</field>
   <field type="int">atomtype</field>
   <set>
    <rc><c>N </c><c>   1</c></rc>
    <rc><c>N </c><c>   1</c></rc>
    <rc><c>N </c><c>   1</c></rc>
    <rc><c>N </c><c>   1</c></rc>
    <rc><c>N </c><c>   1</c></rc>
    <rc><c>N </c><c>   1</c></rc>
    <rc><c>N </c><c>   1</c></rc>
    <rc><c>N </c><c>   1</c></rc>
    <rc><c>N </c><c>   1</c></rc>
    <rc><c>N </c><c>   1</c></rc>
    <rc><c>N </c><c>   1</c></rc>
    <rc><c>N </c><c>   1</c></rc>
    <rc><c>N </c><c>   1</c></rc>
    <rc><c>N </c><c>   1</c></rc>
    <rc><c>N </c><c>   1</c></rc>
    <rc><c>H </c><c>   2</c></rc>
    <rc><c>H </c><c>   2</c></rc>
    <rc><c>H </c><c>   2</c></rc>
    <rc><c>H </c><c>   2</c></rc>
    <rc><c>H </c><c>   2</c></rc>
    <rc><c>H </c><c>   2</c></rc>
    <rc><c>H </c><c>   2</c></rc>
    <rc><c>H </c><c>   2</c></rc>
    <rc><c>H </c><c>   2</c></rc>
    <rc><c>C </c><c>   3</c></rc>
    <rc><c>C </c><c>   3</c></rc>
    <rc><c>C </c><c>   3</c></rc>
    <rc><c>C </c><c>   3</c></rc>
    <rc><c>C </c><c>   3</c></rc>
    <rc><c>C </c><c>   3</c></rc>
    <rc><c>C </c><c>   3</c></rc>
    <rc><c>C </c><c>   3</c></rc>
    <rc><c>C </c><c>   3</c></rc>
    <rc><c>C </c><c>   3</c></rc>
    <rc><c>C </c><c>   3</c></rc>
    <rc><c>C </c><c>   3</c></rc>
    <rc><c>C </c><c>   3</c></rc>
    <rc><c>C </c><c>   3</c></rc>
    <rc><c>C </c><c>   3</c></rc>
    <rc><c>C </c><c>   3</c></rc>
    <rc><c>C </c><c>   3</c></rc>
    <rc><c>C </c><c>   3</c></rc>
   </set>
  </array>
  <array name="atomtypes" >
   <dimension dim="1">type</dimension>
   <field type="int">atomspertype</field>
   <field type="string">element</field>
   <field>mass</field>
   <field>valence</field>
   <field type="string">pseudopotential</field>
   <set>
    <rc><c>  15</c><c>N </c><c>     14.00100000</c><c>      5.00000000</c><c>  PAW_PBE N 08Apr2002                   </c></rc>
    <rc><c>   9</c><c>H </c><c>      1.00000000</c><c>      1.00000000</c><c>  PAW_PBE H 15Jun2001                   </c></rc>
    <rc><c>  18</c><c>C </c><c>     12.01100000</c><c>      4.00000000</c><c>  PAW_PBE C 08Apr2002                   </c></rc>
   </set>
  </array>
 </atominfo>
 <structure name="initialpos" >
  <crystal>
   <varray name="basis" >
    <v>      14.29136500       0.00189923       0.00000000 </v>
    <v>       7.14732728      12.37573553       0.00000000 </v>
    <v>      -0.00000000       0.00000000      20.00000000 </v>
   </varray>
   <i name="volume">   3537.05158297 </i>
   <varray name="rec_basis" >
    <v>       0.06997769      -0.04041404       0.00000000 </v>
    <v>      -0.00001074       0.08080948      -0.00000000 </v>
    <v>       0.00000000       0.00000000       0.05000000 </v>
   </varray>
  </crystal>
  <varray name="positions" >
   <v>       0.30856158       0.30856158       0.51655530 </v>
   <v>       0.47569341       0.30852870       0.51645582 </v>
   <v>       0.30852870       0.47569341       0.51645582 </v>
   <v>       0.75324492       0.75324492       0.51259492 </v>
   <v>       0.58615580       0.75327572       0.51255654 </v>
   <v>       0.75327572       0.58615580       0.51255654 </v>
   <v>       0.47644816       0.47644816       0.64133267 </v>
   <v>       0.13991855       0.47657610       0.64140024 </v>
   <v>       0.47657610       0.13991855       0.64140024 </v>
   <v>       0.50349450       0.50349450       0.46071656 </v>
   <v>       0.55730393       0.55730393       0.45836612 </v>
   <v>       0.08576708       0.50360622       0.46077443 </v>
   <v>       0.97815099       0.55744432       0.45841331 </v>
   <v>       0.50360622       0.08576708       0.46077443 </v>
   <v>       0.55744432       0.97815099       0.45841331 </v>
   <v>       0.49631582       0.49631582       0.68545541 </v>
   <v>       0.43575224       0.43575224       0.64237166 </v>
   <v>       0.58464930       0.58464930       0.62490648 </v>
   <v>       0.10014574       0.49625101       0.68551566 </v>
   <v>       0.22133476       0.43569098       0.64243932 </v>
   <v>       0.92340186       0.58457250       0.62496726 </v>
   <v>       0.49625101       0.10014574       0.68551566 </v>
   <v>       0.43569098       0.22133476       0.64243932 </v>
   <v>       0.58457250       0.92340186       0.62496726 </v>
   <v>       0.25856712       0.41711598       0.51604231 </v>
   <v>       0.41711598       0.25856712       0.51604231 </v>
   <v>       0.41709550       0.41709550       0.51599744 </v>
   <v>       0.80284157       0.64490518       0.51238799 </v>
   <v>       0.64490518       0.80284157       0.51238799 </v>
   <v>       0.64493115       0.64493115       0.51235935 </v>
   <v>       0.58456272       0.58456272       0.51666612 </v>
   <v>       0.56034192       0.56034192       0.57935788 </v>
   <v>       0.50394261       0.50394261       0.58218509 </v>
   <v>       0.47748255       0.47748255       0.51925073 </v>
   <v>       0.92360406       0.58455823       0.51670758 </v>
   <v>       0.97203765       0.56028386       0.57941475 </v>
   <v>       0.08487670       0.50395129       0.58225517 </v>
   <v>       0.13777844       0.47751676       0.51931180 </v>
   <v>       0.58455823       0.92360406       0.51670758 </v>
   <v>       0.56028386       0.97203765       0.57941475 </v>
   <v>       0.50395129       0.08487670       0.58225517 </v>
   <v>       0.47751676       0.13777844       0.51931180 </v>
  </varray>
 </structure>
 <calculation>
  <scstep>
   <time name="dav">   27.28   27.49</time>
   <time name="total">   27.36   27.58</time>
   <energy>
    <i name="alphaZ">     31.52696245 </i>
    <i name="ewald">  16967.25493060 </i>
    <i name="hartreedc"> -22500.19408228 </i>
    <i name="XCdc">    576.86851159 </i>
    <i name="pawpsdc">  15464.02859038 </i>
    <i name="pawaedc"> -15497.39291923 </i>
    <i name="eentropy">     -0.00000000 </i>
    <i name="bandstr">  -2083.87748787 </i>
    <i name="atom">   6729.07220092 </i>
    <i name="e_fr_energy">   -312.71329343 </i>
    <i name="e_wo_entrp">   -312.71329343 </i>
    <i name="e_0_energy">   -312.71329343 </i>
   </energy>
  </scstep>
  <scstep>
   <time name="dav">   29.84   30.06</time>
   <time name="total">   29.85   30.07</time>
   <energy>
    <i name="e_fr_energy">   -313.11874172 </i>
    <i name="e_wo_entrp">   -313.11874172 </i>
    <i name="e_0_energy">   -313.11874172 </i>
   </energy>
  </scstep>
  <scstep>
   <time name="dav">   31.79   32.02</time>
   <time name="total">   31.79   32.03</time>
   <energy>
    <i name="e_fr_energy">   -313.12681534 </i>
    <i name="e_wo_entrp">   -313.12681534 </i>
    <i name="e_0_energy">   -313.12681534 </i>
   </energy>
  </scstep>
  <scstep>
   <time name="dav">   29.12   29.33</time>
   <time name="total">   29.12   29.33</time>
   <energy>
    <i name="e_fr_energy">   -313.12695614 </i>
    <i name="e_wo_entrp">   -313.12695614 </i>
    <i name="e_0_energy">   -313.12695614 </i>
   </energy>
  </scstep>
  <scstep>
   <time name="dav">   27.47   27.67</time>
   <time name="total">   27.47   27.68</time>
   <energy>
    <i name="alphaZ">     31.52696245 </i>
    <i name="ewald">  16967.25493060 </i>
    <i name="hartreedc"> -22500.19408228 </i>
    <i name="XCdc">    576.86851159 </i>
    <i name="pawpsdc">  15464.02859038 </i>
    <i name="pawaedc"> -15497.39291923 </i>
    <i name="eentropy">     -0.00000000 </i>
    <i name="bandstr">  -2084.29115698 </i>
    <i name="atom">   6729.07220092 </i>
    <i name="e_fr_energy">   -313.12696254 </i>
    <i name="e_wo_entrp">   -313.12696254 </i>
    <i name="e_0_energy">   -313.12696254 </i>
   </energy>
  </scstep>
  <structure>
   <crystal>
    <varray name="basis" >
     <v>      14.29136500       0.00189923       0.00000000 </v>
     <v>       7.14732728      12.37573553       0.00000000 </v>
     <v>      -0.00000000       0.00000000      20.00000000 </v>
    </varray>
    <i name="volume">   3537.05158297 </i>
    <varray name="rec_basis" >
     <v>       0.06997769      -0.04041404       0.00000000 </v>
     <v>      -0.00001074       0.08080948      -0.00000000 </v>
     <v>       0.00000000       0.00000000       0.05000000 </v>
    </varray>
   </crystal>
   <varray name="positions" >
    <v>       0.30856158       0.30856158       0.51655530 </v>
    <v>       0.47569341       0.30852870       0.51645582 </v>
    <v>       0.30852870       0.47569341       0.51645582 </v>
    <v>       0.75324492       0.75324492       0.51259492 </v>
    <v>       0.58615580       0.75327572       0.51255654 </v>
    <v>       0.75327572       0.58615580       0.51255654 </v>
    <v>       0.47644816       0.47644816       0.64133267 </v>
    <v>       0.13991855       0.47657610       0.64140024 </v>
    <v>       0.47657610       0.13991855       0.64140024 </v>
    <v>       0.50349450       0.50349450       0.46071656 </v>
    <v>       0.55730393       0.55730393       0.45836612 </v>
    <v>       0.08576708       0.50360622       0.46077443 </v>
    <v>       0.97815099       0.55744432       0.45841331 </v>
    <v>       0.50360622       0.08576708       0.46077443 </v>
    <v>       0.55744432       0.97815099       0.45841331 </v>
    <v>       0.49631582       0.49631582       0.68545541 </v>
    <v>       0.43575224       0.43575224       0.64237166 </v>
    <v>       0.58464930       0.58464930       0.62490648 </v>
    <v>       0.10014574       0.49625101       0.68551566 </v>
    <v>       0.22133476       0.43569098       0.64243932 </v>
    <v>       0.92340186       0.58457250       0.62496726 </v>
    <v>       0.49625101       0.10014574       0.68551566 </v>
    <v>       0.43569098       0.22133476       0.64243932 </v>
    <v>       0.58457250       0.92340186       0.62496726 </v>
    <v>       0.25856712       0.41711598       0.51604231 </v>
    <v>       0.41711598       0.25856712       0.51604231 </v>
    <v>       0.41709550       0.41709550       0.51599744 </v>
    <v>       0.80284157       0.64490518       0.51238799 </v>
    <v>       0.64490518       0.80284157       0.51238799 </v>
    <v>       0.64493115       0.64493115       0.51235935 </v>
    <v>       0.58456272       0.58456272       0.51666612 </v>
    <v>       0.56034192       0.56034192       0.57935788 </v>
    <v>       0.50394261       0.50394261       0.58218509 </v>
    <v>       0.47748255       0.47748255       0.51925073 </v>
    <v>       0.92360406       0.58455823       0.51670758 </v>
    <v>       0.97203765       0.56028386       0.57941475 </v>
    <v>       0.08487670       0.50395129       0.58225517 </v>
    <v>       0.13777844       0.47751676       0.51931180 </v>
    <v>       0.58455823       0.92360406       0.51670758 </v>
    <v>       0.56028386       0.97203765       0.57941475 </v>
    <v>       0.50395129       0.08487670       0.58225517 </v>
    <v>       0.47751676       0.13777844       0.51931180 </v>
   </varray>
  </structure>
  <varray name="forces" >
   <v>       0.00293953       0.00169714       0.00242849 </v>
   <v>       0.00108309      -0.00519463       0.00066387 </v>
   <v>      -0.00395714       0.00353530       0.00066387 </v>
   <v>      -0.00639516      -0.00369225       0.00208433 </v>
   <v>       0.00390983      -0.00264085       0.00361041 </v>
   <v>      -0.00033213       0.00470644       0.00361041 </v>
   <v>       0.00256073       0.00147844       0.00205864 </v>
   <v>       0.00203279       0.00660000      -0.00208902 </v>
   <v>       0.00673217      -0.00153955      -0.00208902 </v>
   <v>      -0.00032438      -0.00018728       0.00681538 </v>
   <v>      -0.00328133      -0.00189448      -0.00236047 </v>
   <v>       0.00261536      -0.00021962       0.00514185 </v>
   <v>       0.00285148      -0.00075513       0.00041981 </v>
   <v>       0.00111748       0.00237477       0.00514185 </v>
   <v>       0.00077178       0.00284702       0.00041981 </v>
   <v>       0.00295828       0.00170796      -0.00206433 </v>
   <v>      -0.00311736      -0.00179981       0.00269456 </v>
   <v>      -0.00169625      -0.00097933       0.00094301 </v>
   <v>      -0.00251071      -0.00084771      -0.00213824 </v>
   <v>      -0.00291649      -0.00115668       0.00127059 </v>
   <v>      -0.00060913      -0.00281322      -0.00327970 </v>
   <v>      -0.00198950      -0.00175048      -0.00213824 </v>
   <v>      -0.00245996      -0.00194741       0.00127059 </v>
   <v>      -0.00274089       0.00087909      -0.00327970 </v>
   <v>       0.00098438      -0.00177467      -0.00184453 </v>
   <v>      -0.00104472       0.00173983      -0.00184453 </v>
   <v>      -0.00037683      -0.00021756      -0.00510987 </v>
   <v>       0.00038456       0.00529957      -0.00555218 </v>
   <v>       0.00478184      -0.00231674      -0.00555218 </v>
   <v>      -0.00234282      -0.00135263      -0.00480300 </v>
   <v>      -0.00056152      -0.00032419      -0.00813719 </v>
   <v>      -0.00147835      -0.00085353      -0.00005420 </v>
   <v>      -0.00219343      -0.00126638       0.00205011 </v>
   <v>       0.00083944       0.00048465      -0.00186357 </v>
   <v>       0.00274085      -0.00106185       0.00019003 </v>
   <v>       0.00332854      -0.00242866       0.00144554 </v>
   <v>      -0.00082703       0.00071020      -0.00012002 </v>
   <v>      -0.00057712      -0.00095225       0.00494066 </v>
   <v>       0.00045084       0.00290457       0.00019003 </v>
   <v>      -0.00043902       0.00409693       0.00144554 </v>
   <v>       0.00020153      -0.00107133      -0.00012002 </v>
   <v>      -0.00111323      -0.00002367       0.00494066 </v>
  </varray>
  <varray name="stress" >
   <v>      -0.00352151      -0.00369622      -0.00787491 </v>
   <v>      -0.00369622       0.00074652      -0.00454658 </v>
   <v>      -0.00787492      -0.00454659      -0.47245044 </v>
  </varray>
  <energy>
   <i name="e_fr_energy">   -314.04085959 </i>
   <i name="e_wo_entrp">   -314.04085959 </i>
   <i name="e_0_energy">     -0.00000000 </i>
  </energy>
  <time name="totalsc">  165.15  166.43</time>
  <eigenvalues>
   <array>
    <dimension dim="1">band</dimension>
    <dimension dim="2">kpoint</dimension>
    <dimension dim="3">spin</dimension>
    <field>eigene</field>
    <field>occ</field>
    <set>
     <set comment="spin 1">
      <set comment="kpoint 1">
       <r>  -25.8428    1.0000 </r>
       <r>  -25.5430    1.0000 </r>
       <r>  -25.0345    1.0000 </r>
       <r>  -25.0318    1.0000 </r>
       <r>  -24.8677    1.0000 </r>
       <r>  -23.6257    1.0000 </r>
       <r>  -23.6255    1.0000 </r>
       <r>  -23.5906    1.0000 </r>
       <r>  -22.7091    1.0000 </r>
       <r>  -22.7084    1.0000 </r>
       <r>  -22.4443    1.0000 </r>
       <r>  -22.4441    1.0000 </r>
       <r>  -20.3413    1.0000 </r>
       <r>  -20.3410    1.0000 </r>
       <r>  -20.2755    1.0000 </r>
       <r>  -19.7529    1.0000 </r>
       <r>  -19.7519    1.0000 </r>
       <r>  -19.7082    1.0000 </r>
       <r>  -17.8580    1.0000 </r>
       <r>  -17.8570    1.0000 </r>
       <r>  -16.8800    1.0000 </r>
       <r>  -16.8796    1.0000 </r>
       <r>  -16.7053    1.0000 </r>
       <r>  -16.3496    1.0000 </r>
       <r>  -15.9238    1.0000 </r>
       <r>  -15.9237    1.0000 </r>
       <r>  -15.0236    1.0000 </r>
       <r>  -15.0231    1.0000 </r>
       <r>  -14.1415    1.0000 </r>
       <r>  -13.9160    1.0000 </r>
       <r>  -13.9076    1.0000 </r>
       <r>  -13.9067    1.0000 </r>
       <r>  -13.8260    1.0000 </r>
       <r>  -13.6330    1.0000 </r>
       <r>  -13.3600    1.0000 </r>
       <r>  -13.0484    1.0000 </r>
       <r>  -13.0483    1.0000 </r>
       <r>  -12.2776    1.0000 </r>
       <r>  -11.8639    1.0000 </r>
       <r>  -11.8633    1.0000 </r>
       <r>  -11.6063    1.0000 </r>
       <r>  -11.6063    1.0000 </r>
       <r>  -11.5699    1.0000 </r>
       <r>  -11.0812    1.0000 </r>
       <r>  -10.6187    1.0000 </r>
       <r>  -10.5775    1.0000 </r>
       <r>  -10.5767    1.0000 </r>
       <r>  -10.2123    1.0000 </r>
       <r>  -10.2087    1.0000 </r>
       <r>  -10.0693    1.0000 </r>
       <r>  -10.0679    1.0000 </r>
       <r>   -9.7610    1.0000 </r>
       <r>   -9.7603    1.0000 </r>
       <r>   -8.9585    1.0000 </r>
       <r>   -8.7869    1.0000 </r>
       <r>   -8.7861    1.0000 </r>
       <r>   -8.7256    1.0000 </r>
       <r>   -8.7056    1.0000 </r>
       <r>   -8.2277    1.0000 </r>
       <r>   -8.2268    1.0000 </r>
       <r>   -7.8880    1.0000 </r>
       <r>   -7.8878    1.0000 </r>
       <r>   -7.2370    1.0000 </r>
       <r>   -7.2364    1.0000 </r>
       <r>   -7.0110    1.0000 </r>
       <r>   -6.8061    1.0000 </r>
       <r>   -6.8057    1.0000 </r>
       <r>   -6.7888    1.0000 </r>
       <r>   -6.1747    1.0000 </r>
       <r>   -6.1742    1.0000 </r>
       <r>   -5.8512    1.0000 </r>
       <r>   -5.8507    1.0000 </r>
       <r>   -5.7053    1.0000 </r>
       <r>   -5.7043    1.0000 </r>
       <r>   -5.6229    1.0000 </r>
       <r>   -4.8054    1.0000 </r>
       <r>   -4.8025    1.0000 </r>
       <r>   -4.8023    1.0000 </r>
       <r>   -2.5730    0.0000 </r>
       <r>   -2.5729    0.0000 </r>
       <r>   -2.2207    0.0000 </r>
       <r>   -2.2202    0.0000 </r>
       <r>   -1.7133    0.0000 </r>
       <r>   -1.7126    0.0000 </r>
       <r>   -1.7026    0.0000 </r>
       <r>   -1.6242    0.0000 </r>
       <r>   -1.3160    0.0000 </r>
       <r>   -1.3145    0.0000 </r>
       <r>   -1.0112    0.0000 </r>
       <r>   -0.5348    0.0000 </r>
       <r>   -0.3322    0.0000 </r>
       <r>   -0.3317    0.0000 </r>
       <r>    0.1979    0.0000 </r>
       <r>    0.5115    0.0000 </r>
       <r>    0.5124    0.0000 </r>
       <r>    0.6231    0.0000 </r>
       <r>    0.8763    0.0000 </r>
       <r>    0.9591    0.0000 </r>
       <r>    1.2165    0.0000 </r>
       <r>    1.3215    0.0000 </r>
       <r>    1.3956    0.0000 </r>
       <r>    1.3961    0.0000 </r>
       <r>    1.4989    0.0000 </r>
       <r>    1.5002    0.0000 </r>
       <r>    1.5992    0.0000 </r>
       <r>    1.6013    0.0000 </r>
       <r>    1.6196    0.0000 </r>
       <r>    1.6764    0.0000 </r>
       <r>    1.7390    0.0000 </r>
       <r>    1.7410    0.0000 </r>
       <r>    1.7790    0.0000 </r>
       <r>    1.8285    0.0000 </r>
      </set>
      <set comment="kpoint 2">
       <r>  -25.8428    1.0000 </r>
       <r>  -25.5431    1.0000 </r>
       <r>  -25.0345    1.0000 </r>
       <r>  -25.0316    1.0000 </r>
       <r>  -24.8679    1.0000 </r>
       <r>  -23.6257    1.0000 </r>
       <r>  -23.6255    1.0000 </r>
       <r>  -23.5906    1.0000 </r>
       <r>  -22.7089    1.0000 </r>
       <r>  -22.7084    1.0000 </r>
       <r>  -22.4443    1.0000 </r>
       <r>  -22.4442    1.0000 </r>
       <r>  -20.3413    1.0000 </r>
       <r>  -20.3409    1.0000 </r>
       <r>  -20.2756    1.0000 </r>
       <r>  -19.7529    1.0000 </r>
       <r>  -19.7519    1.0000 </r>
       <r>  -19.7082    1.0000 </r>
       <r>  -17.8580    1.0000 </r>
       <r>  -17.8562    1.0000 </r>
       <r>  -16.8864    1.0000 </r>
       <r>  -16.8800    1.0000 </r>
       <r>  -16.6997    1.0000 </r>
       <r>  -16.3495    1.0000 </r>
       <r>  -15.9237    1.0000 </r>
       <r>  -15.9224    1.0000 </r>
       <r>  -15.0243    1.0000 </r>
       <r>  -15.0236    1.0000 </r>
       <r>  -14.1413    1.0000 </r>
       <r>  -13.9160    1.0000 </r>
       <r>  -13.9076    1.0000 </r>
       <r>  -13.9071    1.0000 </r>
       <r>  -13.8259    1.0000 </r>
       <r>  -13.6330    1.0000 </r>
       <r>  -13.3617    1.0000 </r>
       <r>  -13.0483    1.0000 </r>
       <r>  -13.0464    1.0000 </r>
       <r>  -12.2773    1.0000 </r>
       <r>  -11.8639    1.0000 </r>
       <r>  -11.8632    1.0000 </r>
       <r>  -11.6066    1.0000 </r>
       <r>  -11.6062    1.0000 </r>
       <r>  -11.5696    1.0000 </r>
       <r>  -11.0817    1.0000 </r>
       <r>  -10.6190    1.0000 </r>
       <r>  -10.5769    1.0000 </r>
       <r>  -10.5762    1.0000 </r>
       <r>  -10.2126    1.0000 </r>
       <r>  -10.2105    1.0000 </r>
       <r>  -10.0685    1.0000 </r>
       <r>  -10.0679    1.0000 </r>
       <r>   -9.7607    1.0000 </r>
       <r>   -9.7602    1.0000 </r>
       <r>   -8.9585    1.0000 </r>
       <r>   -8.7869    1.0000 </r>
       <r>   -8.7860    1.0000 </r>
       <r>   -8.7257    1.0000 </r>
       <r>   -8.7057    1.0000 </r>
       <r>   -8.2277    1.0000 </r>
       <r>   -8.2268    1.0000 </r>
       <r>   -7.8880    1.0000 </r>
       <r>   -7.8878    1.0000 </r>
       <r>   -7.2363    1.0000 </r>
       <r>   -7.2359    1.0000 </r>
       <r>   -7.0111    1.0000 </r>
       <r>   -6.8065    1.0000 </r>
       <r>   -6.8062    1.0000 </r>
       <r>   -6.7890    1.0000 </r>
       <r>   -6.1744    1.0000 </r>
       <r>   -6.1740    1.0000 </r>
       <r>   -5.8512    1.0000 </r>
       <r>   -5.8509    1.0000 </r>
       <r>   -5.7053    1.0000 </r>
       <r>   -5.7043    1.0000 </r>
       <r>   -5.6230    1.0000 </r>
       <r>   -4.8054    1.0000 </r>
       <r>   -4.8025    1.0000 </r>
       <r>   -4.8023    1.0000 </r>
       <r>   -2.5731    0.0000 </r>
       <r>   -2.5730    0.0000 </r>
       <r>   -2.2206    0.0000 </r>
       <r>   -2.2200    0.0000 </r>
       <r>   -1.7139    0.0000 </r>
       <r>   -1.7127    0.0000 </r>
       <r>   -1.7019    0.0000 </r>
       <r>   -1.6240    0.0000 </r>
       <r>   -1.3160    0.0000 </r>
       <r>   -1.3142    0.0000 </r>
       <r>   -1.0118    0.0000 </r>
       <r>   -0.5362    0.0000 </r>
       <r>   -0.3318    0.0000 </r>
       <r>   -0.3303    0.0000 </r>
       <r>    0.1977    0.0000 </r>
       <r>    0.5095    0.0000 </r>
       <r>    0.5135    0.0000 </r>
       <r>    0.6266    0.0000 </r>
       <r>    0.8766    0.0000 </r>
       <r>    0.9586    0.0000 </r>
       <r>    1.2159    0.0000 </r>
       <r>    1.3150    0.0000 </r>
       <r>    1.3918    0.0000 </r>
       <r>    1.3967    0.0000 </r>
       <r>    1.5006    0.0000 </r>
       <r>    1.5026    0.0000 </r>
       <r>    1.5920    0.0000 </r>
       <r>    1.6027    0.0000 </r>
       <r>    1.6271    0.0000 </r>
       <r>    1.6763    0.0000 </r>
       <r>    1.7385    0.0000 </r>
       <r>    1.7425    0.0000 </r>
       <r>    1.7899    0.0000 </r>
       <r>    1.8311    0.0000 </r>
      </set>
      <set comment="kpoint 3">
       <r>  -25.8427    1.0000 </r>
       <r>  -25.5433    1.0000 </r>
       <r>  -25.0345    1.0000 </r>
       <r>  -25.0308    1.0000 </r>
       <r>  -24.8687    1.0000 </r>
       <r>  -23.6256    1.0000 </r>
       <r>  -23.6255    1.0000 </r>
       <r>  -23.5906    1.0000 </r>
       <r>  -22.7086    1.0000 </r>
       <r>  -22.7084    1.0000 </r>
       <r>  -22.4446    1.0000 </r>
       <r>  -22.4443    1.0000 </r>
       <r>  -20.3413    1.0000 </r>
       <r>  -20.3407    1.0000 </r>
       <r>  -20.2759    1.0000 </r>
       <r>  -19.7529    1.0000 </r>
       <r>  -19.7517    1.0000 </r>
       <r>  -19.7083    1.0000 </r>
       <r>  -17.8580    1.0000 </r>
       <r>  -17.8537    1.0000 </r>
       <r>  -16.9047    1.0000 </r>
       <r>  -16.8800    1.0000 </r>
       <r>  -16.6850    1.0000 </r>
       <r>  -16.3493    1.0000 </r>
       <r>  -15.9236    1.0000 </r>
       <r>  -15.9181    1.0000 </r>
       <r>  -15.0279    1.0000 </r>
       <r>  -15.0236    1.0000 </r>
       <r>  -14.1405    1.0000 </r>
       <r>  -13.9159    1.0000 </r>
       <r>  -13.9085    1.0000 </r>
       <r>  -13.9076    1.0000 </r>
       <r>  -13.8257    1.0000 </r>
       <r>  -13.6331    1.0000 </r>
       <r>  -13.3667    1.0000 </r>
       <r>  -13.0483    1.0000 </r>
       <r>  -13.0407    1.0000 </r>
       <r>  -12.2764    1.0000 </r>
       <r>  -11.8640    1.0000 </r>
       <r>  -11.8629    1.0000 </r>
       <r>  -11.6074    1.0000 </r>
       <r>  -11.6061    1.0000 </r>
       <r>  -11.5687    1.0000 </r>
       <r>  -11.0831    1.0000 </r>
       <r>  -10.6198    1.0000 </r>
       <r>  -10.5752    1.0000 </r>
       <r>  -10.5747    1.0000 </r>
       <r>  -10.2158    1.0000 </r>
       <r>  -10.2138    1.0000 </r>
       <r>  -10.0704    1.0000 </r>
       <r>  -10.0636    1.0000 </r>
       <r>   -9.7601    1.0000 </r>
       <r>   -9.7595    1.0000 </r>
       <r>   -8.9585    1.0000 </r>
       <r>   -8.7868    1.0000 </r>
       <r>   -8.7857    1.0000 </r>
       <r>   -8.7259    1.0000 </r>
       <r>   -8.7058    1.0000 </r>
       <r>   -8.2277    1.0000 </r>
       <r>   -8.2269    1.0000 </r>
       <r>   -7.8879    1.0000 </r>
       <r>   -7.8877    1.0000 </r>
       <r>   -7.2346    1.0000 </r>
       <r>   -7.2345    1.0000 </r>
       <r>   -7.0112    1.0000 </r>
       <r>   -6.8079    1.0000 </r>
       <r>   -6.8076    1.0000 </r>
       <r>   -6.7898    1.0000 </r>
       <r>   -6.1737    1.0000 </r>
       <r>   -6.1735    1.0000 </r>
       <r>   -5.8513    1.0000 </r>
       <r>   -5.8512    1.0000 </r>
       <r>   -5.7053    1.0000 </r>
       <r>   -5.7043    1.0000 </r>
       <r>   -5.6230    1.0000 </r>
       <r>   -4.8054    1.0000 </r>
       <r>   -4.8025    1.0000 </r>
       <r>   -4.8023    1.0000 </r>
       <r>   -2.5734    0.0000 </r>
       <r>   -2.5732    0.0000 </r>
       <r>   -2.2203    0.0000 </r>
       <r>   -2.2194    0.0000 </r>
       <r>   -1.7153    0.0000 </r>
       <r>   -1.7132    0.0000 </r>
       <r>   -1.7002    0.0000 </r>
       <r>   -1.6234    0.0000 </r>
       <r>   -1.3161    0.0000 </r>
       <r>   -1.3134    0.0000 </r>
       <r>   -1.0136    0.0000 </r>
       <r>   -0.5401    0.0000 </r>
       <r>   -0.3323    0.0000 </r>
       <r>   -0.3249    0.0000 </r>
       <r>    0.1969    0.0000 </r>
       <r>    0.5045    0.0000 </r>
       <r>    0.5169    0.0000 </r>
       <r>    0.6361    0.0000 </r>
       <r>    0.8774    0.0000 </r>
       <r>    0.9568    0.0000 </r>
       <r>    1.2141    0.0000 </r>
       <r>    1.2990    0.0000 </r>
       <r>    1.3800    0.0000 </r>
       <r>    1.3974    0.0000 </r>
       <r>    1.5006    0.0000 </r>
       <r>    1.5114    0.0000 </r>
       <r>    1.5763    0.0000 </r>
       <r>    1.6076    0.0000 </r>
       <r>    1.6349    0.0000 </r>
       <r>    1.6754    0.0000 </r>
       <r>    1.7317    0.0000 </r>
       <r>    1.7558    0.0000 </r>
       <r>    1.8097    0.0000 </r>
       <r>    1.8914    0.0000 </r>
      </set>
      <set comment="kpoint 4">
       <r>  -25.8427    1.0000 </r>
       <r>  -25.5436    1.0000 </r>
       <r>  -25.0345    1.0000 </r>
       <r>  -25.0294    1.0000 </r>
       <r>  -24.8699    1.0000 </r>
       <r>  -23.6255    1.0000 </r>
       <r>  -23.6255    1.0000 </r>
       <r>  -23.5907    1.0000 </r>
       <r>  -22.7084    1.0000 </r>
       <r>  -22.7080    1.0000 </r>
       <r>  -22.4452    1.0000 </r>
       <r>  -22.4443    1.0000 </r>
       <r>  -20.3413    1.0000 </r>
       <r>  -20.3403    1.0000 </r>
       <r>  -20.2765    1.0000 </r>
       <r>  -19.7529    1.0000 </r>
       <r>  -19.7514    1.0000 </r>
       <r>  -19.7084    1.0000 </r>
       <r>  -17.8580    1.0000 </r>
       <r>  -17.8497    1.0000 </r>
       <r>  -16.9304    1.0000 </r>
       <r>  -16.8800    1.0000 </r>
       <r>  -16.6653    1.0000 </r>
       <r>  -16.3490    1.0000 </r>
       <r>  -15.9236    1.0000 </r>
       <r>  -15.9110    1.0000 </r>
       <r>  -15.0338    1.0000 </r>
       <r>  -15.0237    1.0000 </r>
       <r>  -14.1391    1.0000 </r>
       <r>  -13.9159    1.0000 </r>
       <r>  -13.9107    1.0000 </r>
       <r>  -13.9076    1.0000 </r>
       <r>  -13.8253    1.0000 </r>
       <r>  -13.6331    1.0000 </r>
       <r>  -13.3744    1.0000 </r>
       <r>  -13.0484    1.0000 </r>
       <r>  -13.0316    1.0000 </r>
       <r>  -12.2748    1.0000 </r>
       <r>  -11.8641    1.0000 </r>
       <r>  -11.8625    1.0000 </r>
       <r>  -11.6087    1.0000 </r>
       <r>  -11.6060    1.0000 </r>
       <r>  -11.5672    1.0000 </r>
       <r>  -11.0855    1.0000 </r>
       <r>  -10.6209    1.0000 </r>
       <r>  -10.5725    1.0000 </r>
       <r>  -10.5724    1.0000 </r>
       <r>  -10.2239    1.0000 </r>
       <r>  -10.2157    1.0000 </r>
       <r>  -10.0734    1.0000 </r>
       <r>  -10.0573    1.0000 </r>
       <r>   -9.7599    1.0000 </r>
       <r>   -9.7577    1.0000 </r>
       <r>   -8.9585    1.0000 </r>
       <r>   -8.7867    1.0000 </r>
       <r>   -8.7853    1.0000 </r>
       <r>   -8.7263    1.0000 </r>
       <r>   -8.7060    1.0000 </r>
       <r>   -8.2276    1.0000 </r>
       <r>   -8.2271    1.0000 </r>
       <r>   -7.8877    1.0000 </r>
       <r>   -7.8876    1.0000 </r>
       <r>   -7.2324    1.0000 </r>
       <r>   -7.2315    1.0000 </r>
       <r>   -7.0115    1.0000 </r>
       <r>   -6.8106    1.0000 </r>
       <r>   -6.8101    1.0000 </r>
       <r>   -6.7908    1.0000 </r>
       <r>   -6.1725    1.0000 </r>
       <r>   -6.1724    1.0000 </r>
       <r>   -5.8519    1.0000 </r>
       <r>   -5.8514    1.0000 </r>
       <r>   -5.7054    1.0000 </r>
       <r>   -5.7043    1.0000 </r>
       <r>   -5.6232    1.0000 </r>
       <r>   -4.8054    1.0000 </r>
       <r>   -4.8025    1.0000 </r>
       <r>   -4.8024    1.0000 </r>
       <r>   -2.5738    0.0000 </r>
       <r>   -2.5735    0.0000 </r>
       <r>   -2.2199    0.0000 </r>
       <r>   -2.2184    0.0000 </r>
       <r>   -1.7171    0.0000 </r>
       <r>   -1.7140    0.0000 </r>
       <r>   -1.6979    0.0000 </r>
       <r>   -1.6225    0.0000 </r>
       <r>   -1.3162    0.0000 </r>
       <r>   -1.3119    0.0000 </r>
       <r>   -1.0165    0.0000 </r>
       <r>   -0.5462    0.0000 </r>
       <r>   -0.3330    0.0000 </r>
       <r>   -0.3165    0.0000 </r>
       <r>    0.1957    0.0000 </r>
       <r>    0.4977    0.0000 </r>
       <r>    0.5226    0.0000 </r>
       <r>    0.6503    0.0000 </r>
       <r>    0.8787    0.0000 </r>
       <r>    0.9537    0.0000 </r>
       <r>    1.2104    0.0000 </r>
       <r>    1.2793    0.0000 </r>
       <r>    1.3627    0.0000 </r>
       <r>    1.3953    0.0000 </r>
       <r>    1.4974    0.0000 </r>
       <r>    1.5204    0.0000 </r>
       <r>    1.5640    0.0000 </r>
       <r>    1.6131    0.0000 </r>
       <r>    1.6404    0.0000 </r>
       <r>    1.6743    0.0000 </r>
       <r>    1.7326    0.0000 </r>
       <r>    1.7686    0.0000 </r>
       <r>    1.8096    0.0000 </r>
       <r>    1.8965    0.0000 </r>
      </set>
      <set comment="kpoint 5">
       <r>  -25.8426    1.0000 </r>
       <r>  -25.5441    1.0000 </r>
       <r>  -25.0345    1.0000 </r>
       <r>  -25.0276    1.0000 </r>
       <r>  -24.8715    1.0000 </r>
       <r>  -23.6255    1.0000 </r>
       <r>  -23.6254    1.0000 </r>
       <r>  -23.5907    1.0000 </r>
       <r>  -22.7084    1.0000 </r>
       <r>  -22.7073    1.0000 </r>
       <r>  -22.4459    1.0000 </r>
       <r>  -22.4443    1.0000 </r>
       <r>  -20.3413    1.0000 </r>
       <r>  -20.3398    1.0000 </r>
       <r>  -20.2773    1.0000 </r>
       <r>  -19.7529    1.0000 </r>
       <r>  -19.7509    1.0000 </r>
       <r>  -19.7086    1.0000 </r>
       <r>  -17.8581    1.0000 </r>
       <r>  -17.8440    1.0000 </r>
       <r>  -16.9602    1.0000 </r>
       <r>  -16.8800    1.0000 </r>
       <r>  -16.6437    1.0000 </r>
       <r>  -16.3485    1.0000 </r>
       <r>  -15.9236    1.0000 </r>
       <r>  -15.9011    1.0000 </r>
       <r>  -15.0420    1.0000 </r>
       <r>  -15.0237    1.0000 </r>
       <r>  -14.1373    1.0000 </r>
       <r>  -13.9159    1.0000 </r>
       <r>  -13.9138    1.0000 </r>
       <r>  -13.9076    1.0000 </r>
       <r>  -13.8248    1.0000 </r>
       <r>  -13.6332    1.0000 </r>
       <r>  -13.3842    1.0000 </r>
       <r>  -13.0484    1.0000 </r>
       <r>  -13.0201    1.0000 </r>
       <r>  -12.2727    1.0000 </r>
       <r>  -11.8643    1.0000 </r>
       <r>  -11.8619    1.0000 </r>
       <r>  -11.6104    1.0000 </r>
       <r>  -11.6057    1.0000 </r>
       <r>  -11.5653    1.0000 </r>
       <r>  -11.0888    1.0000 </r>
       <r>  -10.6221    1.0000 </r>
       <r>  -10.5696    1.0000 </r>
       <r>  -10.5685    1.0000 </r>
       <r>  -10.2341    1.0000 </r>
       <r>  -10.2185    1.0000 </r>
       <r>  -10.0774    1.0000 </r>
       <r>  -10.0496    1.0000 </r>
       <r>   -9.7596    1.0000 </r>
       <r>   -9.7553    1.0000 </r>
       <r>   -8.9584    1.0000 </r>
       <r>   -8.7866    1.0000 </r>
       <r>   -8.7846    1.0000 </r>
       <r>   -8.7268    1.0000 </r>
       <r>   -8.7063    1.0000 </r>
       <r>   -8.2276    1.0000 </r>
       <r>   -8.2273    1.0000 </r>
       <r>   -7.8874    1.0000 </r>
       <r>   -7.8874    1.0000 </r>
       <r>   -7.2294    1.0000 </r>
       <r>   -7.2273    1.0000 </r>
       <r>   -7.0119    1.0000 </r>
       <r>   -6.8146    1.0000 </r>
       <r>   -6.8134    1.0000 </r>
       <r>   -6.7919    1.0000 </r>
       <r>   -6.1713    1.0000 </r>
       <r>   -6.1706    1.0000 </r>
       <r>   -5.8527    1.0000 </r>
       <r>   -5.8516    1.0000 </r>
       <r>   -5.7054    1.0000 </r>
       <r>   -5.7043    1.0000 </r>
       <r>   -5.6233    1.0000 </r>
       <r>   -4.8054    1.0000 </r>
       <r>   -4.8025    1.0000 </r>
       <r>   -4.8024    1.0000 </r>
       <r>   -2.5745    0.0000 </r>
       <r>   -2.5738    0.0000 </r>
       <r>   -2.2194    0.0000 </r>
       <r>   -2.2171    0.0000 </r>
       <r>   -1.7190    0.0000 </r>
       <r>   -1.7151    0.0000 </r>
       <r>   -1.6953    0.0000 </r>
       <r>   -1.6213    0.0000 </r>
       <r>   -1.3163    0.0000 </r>
       <r>   -1.3100    0.0000 </r>
       <r>   -1.0206    0.0000 </r>
       <r>   -0.5539    0.0000 </r>
       <r>   -0.3340    0.0000 </r>
       <r>   -0.3055    0.0000 </r>
       <r>    0.1940    0.0000 </r>
       <r>    0.4908    0.0000 </r>
       <r>    0.5305    0.0000 </r>
       <r>    0.6675    0.0000 </r>
       <r>    0.8804    0.0000 </r>
       <r>    0.9490    0.0000 </r>
       <r>    1.2040    0.0000 </r>
       <r>    1.2603    0.0000 </r>
       <r>    1.3418    0.0000 </r>
       <r>    1.3898    0.0000 </r>
       <r>    1.4901    0.0000 </r>
       <r>    1.5201    0.0000 </r>
       <r>    1.5607    0.0000 </r>
       <r>    1.6202    0.0000 </r>
       <r>    1.6423    0.0000 </r>
       <r>    1.6734    0.0000 </r>
       <r>    1.7405    0.0000 </r>
       <r>    1.7837    0.0000 </r>
       <r>    1.8060    0.0000 </r>
       <r>    1.8874    0.0000 </r>
      </set>
      <set comment="kpoint 6">
       <r>  -25.8424    1.0000 </r>
       <r>  -25.5446    1.0000 </r>
       <r>  -25.0345    1.0000 </r>
       <r>  -25.0252    1.0000 </r>
       <r>  -24.8736    1.0000 </r>
       <r>  -23.6255    1.0000 </r>
       <r>  -23.6252    1.0000 </r>
       <r>  -23.5908    1.0000 </r>
       <r>  -22.7084    1.0000 </r>
       <r>  -22.7063    1.0000 </r>
       <r>  -22.4469    1.0000 </r>
       <r>  -22.4443    1.0000 </r>
       <r>  -20.3413    1.0000 </r>
       <r>  -20.3392    1.0000 </r>
       <r>  -20.2784    1.0000 </r>
       <r>  -19.7529    1.0000 </r>
       <r>  -19.7503    1.0000 </r>
       <r>  -19.7089    1.0000 </r>
       <r>  -17.8581    1.0000 </r>
       <r>  -17.8368    1.0000 </r>
       <r>  -16.9925    1.0000 </r>
       <r>  -16.8799    1.0000 </r>
       <r>  -16.6220    1.0000 </r>
       <r>  -16.3479    1.0000 </r>
       <r>  -15.9235    1.0000 </r>
       <r>  -15.8885    1.0000 </r>
       <r>  -15.0525    1.0000 </r>
       <r>  -15.0238    1.0000 </r>
       <r>  -14.1349    1.0000 </r>
       <r>  -13.9177    1.0000 </r>
       <r>  -13.9158    1.0000 </r>
       <r>  -13.9076    1.0000 </r>
       <r>  -13.8242    1.0000 </r>
       <r>  -13.6333    1.0000 </r>
       <r>  -13.3955    1.0000 </r>
       <r>  -13.0485    1.0000 </r>
       <r>  -13.0066    1.0000 </r>
       <r>  -12.2700    1.0000 </r>
       <r>  -11.8646    1.0000 </r>
       <r>  -11.8611    1.0000 </r>
       <r>  -11.6125    1.0000 </r>
       <r>  -11.6055    1.0000 </r>
       <r>  -11.5628    1.0000 </r>
       <r>  -11.0930    1.0000 </r>
       <r>  -10.6233    1.0000 </r>
       <r>  -10.5663    1.0000 </r>
       <r>  -10.5636    1.0000 </r>
       <r>  -10.2457    1.0000 </r>
       <r>  -10.2222    1.0000 </r>
       <r>  -10.0821    1.0000 </r>
       <r>  -10.0411    1.0000 </r>
       <r>   -9.7592    1.0000 </r>
       <r>   -9.7523    1.0000 </r>
       <r>   -8.9584    1.0000 </r>
       <r>   -8.7864    1.0000 </r>
       <r>   -8.7838    1.0000 </r>
       <r>   -8.7274    1.0000 </r>
       <r>   -8.7067    1.0000 </r>
       <r>   -8.2276    1.0000 </r>
       <r>   -8.2275    1.0000 </r>
       <r>   -7.8872    1.0000 </r>
       <r>   -7.8870    1.0000 </r>
       <r>   -7.2255    1.0000 </r>
       <r>   -7.2220    1.0000 </r>
       <r>   -7.0123    1.0000 </r>
       <r>   -6.8201    1.0000 </r>
       <r>   -6.8175    1.0000 </r>
       <r>   -6.7927    1.0000 </r>
       <r>   -6.1698    1.0000 </r>
       <r>   -6.1685    1.0000 </r>
       <r>   -5.8537    1.0000 </r>
       <r>   -5.8518    1.0000 </r>
       <r>   -5.7055    1.0000 </r>
       <r>   -5.7042    1.0000 </r>
       <r>   -5.6235    1.0000 </r>
       <r>   -4.8053    1.0000 </r>
       <r>   -4.8025    1.0000 </r>
       <r>   -4.8024    1.0000 </r>
       <r>   -2.5752    0.0000 </r>
       <r>   -2.5743    0.0000 </r>
       <r>   -2.2187    0.0000 </r>
       <r>   -2.2155    0.0000 </r>
       <r>   -1.7209    0.0000 </r>
       <r>   -1.7165    0.0000 </r>
       <r>   -1.6926    0.0000 </r>
       <r>   -1.6199    0.0000 </r>
       <r>   -1.3165    0.0000 </r>
       <r>   -1.3074    0.0000 </r>
       <r>   -1.0257    0.0000 </r>
       <r>   -0.5627    0.0000 </r>
       <r>   -0.3352    0.0000 </r>
       <r>   -0.2926    0.0000 </r>
       <r>    0.1918    0.0000 </r>
       <r>    0.4845    0.0000 </r>
       <r>    0.5406    0.0000 </r>
       <r>    0.6868    0.0000 </r>
       <r>    0.8820    0.0000 </r>
       <r>    0.9425    0.0000 </r>
       <r>    1.1942    0.0000 </r>
       <r>    1.2449    0.0000 </r>
       <r>    1.3182    0.0000 </r>
       <r>    1.3815    0.0000 </r>
       <r>    1.4791    0.0000 </r>
       <r>    1.5095    0.0000 </r>
       <r>    1.5652    0.0000 </r>
       <r>    1.6280    0.0000 </r>
       <r>    1.6422    0.0000 </r>
       <r>    1.6728    0.0000 </r>
       <r>    1.7539    0.0000 </r>
       <r>    1.7932    0.0000 </r>
       <r>    1.8011    0.0000 </r>
       <r>    1.8776    0.0000 </r>
      </set>
      <set comment="kpoint 7">
       <r>  -25.8423    1.0000 </r>
       <r>  -25.5452    1.0000 </r>
       <r>  -25.0345    1.0000 </r>
       <r>  -25.0224    1.0000 </r>
       <r>  -24.8762    1.0000 </r>
       <r>  -23.6255    1.0000 </r>
       <r>  -23.6250    1.0000 </r>
       <r>  -23.5909    1.0000 </r>
       <r>  -22.7084    1.0000 </r>
       <r>  -22.7051    1.0000 </r>
       <r>  -22.4481    1.0000 </r>
       <r>  -22.4443    1.0000 </r>
       <r>  -20.3413    1.0000 </r>
       <r>  -20.3384    1.0000 </r>
       <r>  -20.2796    1.0000 </r>
       <r>  -19.7529    1.0000 </r>
       <r>  -19.7497    1.0000 </r>
       <r>  -19.7092    1.0000 </r>
       <r>  -17.8581    1.0000 </r>
       <r>  -17.8281    1.0000 </r>
       <r>  -17.0262    1.0000 </r>
       <r>  -16.8799    1.0000 </r>
       <r>  -16.6012    1.0000 </r>
       <r>  -16.3472    1.0000 </r>
       <r>  -15.9235    1.0000 </r>
       <r>  -15.8732    1.0000 </r>
       <r>  -15.0651    1.0000 </r>
       <r>  -15.0239    1.0000 </r>
       <r>  -14.1321    1.0000 </r>
       <r>  -13.9223    1.0000 </r>
       <r>  -13.9158    1.0000 </r>
       <r>  -13.9076    1.0000 </r>
       <r>  -13.8235    1.0000 </r>
       <r>  -13.6333    1.0000 </r>
       <r>  -13.4076    1.0000 </r>
       <r>  -13.0486    1.0000 </r>
       <r>  -12.9920    1.0000 </r>
       <r>  -12.2669    1.0000 </r>
       <r>  -11.8649    1.0000 </r>
       <r>  -11.8600    1.0000 </r>
       <r>  -11.6150    1.0000 </r>
       <r>  -11.6051    1.0000 </r>
       <r>  -11.5600    1.0000 </r>
       <r>  -11.0979    1.0000 </r>
       <r>  -10.6243    1.0000 </r>
       <r>  -10.5628    1.0000 </r>
       <r>  -10.5576    1.0000 </r>
       <r>  -10.2583    1.0000 </r>
       <r>  -10.2269    1.0000 </r>
       <r>  -10.0872    1.0000 </r>
       <r>  -10.0322    1.0000 </r>
       <r>   -9.7587    1.0000 </r>
       <r>   -9.7490    1.0000 </r>
       <r>   -8.9583    1.0000 </r>
       <r>   -8.7862    1.0000 </r>
       <r>   -8.7829    1.0000 </r>
       <r>   -8.7282    1.0000 </r>
       <r>   -8.7071    1.0000 </r>
       <r>   -8.2279    1.0000 </r>
       <r>   -8.2273    1.0000 </r>
       <r>   -7.8869    1.0000 </r>
       <r>   -7.8866    1.0000 </r>
       <r>   -7.2210    1.0000 </r>
       <r>   -7.2156    1.0000 </r>
       <r>   -7.0129    1.0000 </r>
       <r>   -6.8270    1.0000 </r>
       <r>   -6.8224    1.0000 </r>
       <r>   -6.7934    1.0000 </r>
       <r>   -6.1680    1.0000 </r>
       <r>   -6.1660    1.0000 </r>
       <r>   -5.8550    1.0000 </r>
       <r>   -5.8520    1.0000 </r>
       <r>   -5.7057    1.0000 </r>
       <r>   -5.7042    1.0000 </r>
       <r>   -5.6237    1.0000 </r>
       <r>   -4.8053    1.0000 </r>
       <r>   -4.8025    1.0000 </r>
       <r>   -4.8025    1.0000 </r>
       <r>   -2.5761    0.0000 </r>
       <r>   -2.5749    0.0000 </r>
       <r>   -2.2179    0.0000 </r>
       <r>   -2.2136    0.0000 </r>
       <r>   -1.7227    0.0000 </r>
       <r>   -1.7180    0.0000 </r>
       <r>   -1.6897    0.0000 </r>
       <r>   -1.6182    0.0000 </r>
       <r>   -1.3167    0.0000 </r>
       <r>   -1.3042    0.0000 </r>
       <r>   -1.0319    0.0000 </r>
       <r>   -0.5720    0.0000 </r>
       <r>   -0.3366    0.0000 </r>
       <r>   -0.2784    0.0000 </r>
       <r>    0.1892    0.0000 </r>
       <r>    0.4794    0.0000 </r>
       <r>    0.5528    0.0000 </r>
       <r>    0.7074    0.0000 </r>
       <r>    0.8830    0.0000 </r>
       <r>    0.9346    0.0000 </r>
       <r>    1.1818    0.0000 </r>
       <r>    1.2334    0.0000 </r>
       <r>    1.2925    0.0000 </r>
       <r>    1.3717    0.0000 </r>
       <r>    1.4657    0.0000 </r>
       <r>    1.4951    0.0000 </r>
       <r>    1.5692    0.0000 </r>
       <r>    1.6352    0.0000 </r>
       <r>    1.6414    0.0000 </r>
       <r>    1.6722    0.0000 </r>
       <r>    1.7696    0.0000 </r>
       <r>    1.7908    0.0000 </r>
       <r>    1.7974    0.0000 </r>
       <r>    1.8705    0.0000 </r>
      </set>
      <set comment="kpoint 8">
       <r>  -25.8421    1.0000 </r>
       <r>  -25.5459    1.0000 </r>
       <r>  -25.0345    1.0000 </r>
       <r>  -25.0191    1.0000 </r>
       <r>  -24.8791    1.0000 </r>
       <r>  -23.6255    1.0000 </r>
       <r>  -23.6247    1.0000 </r>
       <r>  -23.5910    1.0000 </r>
       <r>  -22.7084    1.0000 </r>
       <r>  -22.7039    1.0000 </r>
       <r>  -22.4494    1.0000 </r>
       <r>  -22.4443    1.0000 </r>
       <r>  -20.3413    1.0000 </r>
       <r>  -20.3375    1.0000 </r>
       <r>  -20.2810    1.0000 </r>
       <r>  -19.7529    1.0000 </r>
       <r>  -19.7489    1.0000 </r>
       <r>  -19.7095    1.0000 </r>
       <r>  -17.8582    1.0000 </r>
       <r>  -17.8179    1.0000 </r>
       <r>  -17.0605    1.0000 </r>
       <r>  -16.8798    1.0000 </r>
       <r>  -16.5817    1.0000 </r>
       <r>  -16.3464    1.0000 </r>
       <r>  -15.9234    1.0000 </r>
       <r>  -15.8555    1.0000 </r>
       <r>  -15.0798    1.0000 </r>
       <r>  -15.0240    1.0000 </r>
       <r>  -14.1289    1.0000 </r>
       <r>  -13.9276    1.0000 </r>
       <r>  -13.9157    1.0000 </r>
       <r>  -13.9076    1.0000 </r>
       <r>  -13.8228    1.0000 </r>
       <r>  -13.6334    1.0000 </r>
       <r>  -13.4199    1.0000 </r>
       <r>  -13.0488    1.0000 </r>
       <r>  -12.9769    1.0000 </r>
       <r>  -12.2633    1.0000 </r>
       <r>  -11.8652    1.0000 </r>
       <r>  -11.8588    1.0000 </r>
       <r>  -11.6178    1.0000 </r>
       <r>  -11.6048    1.0000 </r>
       <r>  -11.5567    1.0000 </r>
       <r>  -11.1036    1.0000 </r>
       <r>  -10.6250    1.0000 </r>
       <r>  -10.5591    1.0000 </r>
       <r>  -10.5506    1.0000 </r>
       <r>  -10.2713    1.0000 </r>
       <r>  -10.2327    1.0000 </r>
       <r>  -10.0926    1.0000 </r>
       <r>  -10.0234    1.0000 </r>
       <r>   -9.7582    1.0000 </r>
       <r>   -9.7455    1.0000 </r>
       <r>   -8.9583    1.0000 </r>
       <r>   -8.7860    1.0000 </r>
       <r>   -8.7818    1.0000 </r>
       <r>   -8.7291    1.0000 </r>
       <r>   -8.7075    1.0000 </r>
       <r>   -8.2282    1.0000 </r>
       <r>   -8.2272    1.0000 </r>
       <r>   -7.8867    1.0000 </r>
       <r>   -7.8861    1.0000 </r>
       <r>   -7.2157    1.0000 </r>
       <r>   -7.2081    1.0000 </r>
       <r>   -7.0137    1.0000 </r>
       <r>   -6.8352    1.0000 </r>
       <r>   -6.8280    1.0000 </r>
       <r>   -6.7938    1.0000 </r>
       <r>   -6.1661    1.0000 </r>
       <r>   -6.1631    1.0000 </r>
       <r>   -5.8563    1.0000 </r>
       <r>   -5.8522    1.0000 </r>
       <r>   -5.7058    1.0000 </r>
       <r>   -5.7042    1.0000 </r>
       <r>   -5.6240    1.0000 </r>
       <r>   -4.8052    1.0000 </r>
       <r>   -4.8025    1.0000 </r>
       <r>   -4.8025    1.0000 </r>
       <r>   -2.5771    0.0000 </r>
       <r>   -2.5755    0.0000 </r>
       <r>   -2.2170    0.0000 </r>
       <r>   -2.2115    0.0000 </r>
       <r>   -1.7245    0.0000 </r>
       <r>   -1.7196    0.0000 </r>
       <r>   -1.6869    0.0000 </r>
       <r>   -1.6164    0.0000 </r>
       <r>   -1.3169    0.0000 </r>
       <r>   -1.3004    0.0000 </r>
       <r>   -1.0389    0.0000 </r>
       <r>   -0.5816    0.0000 </r>
       <r>   -0.3382    0.0000 </r>
       <r>   -0.2633    0.0000 </r>
       <r>    0.1862    0.0000 </r>
       <r>    0.4759    0.0000 </r>
       <r>    0.5670    0.0000 </r>
       <r>    0.7288    0.0000 </r>
       <r>    0.8813    0.0000 </r>
       <r>    0.9269    0.0000 </r>
       <r>    1.1690    0.0000 </r>
       <r>    1.2245    0.0000 </r>
       <r>    1.2651    0.0000 </r>
       <r>    1.3615    0.0000 </r>
       <r>    1.4510    0.0000 </r>
       <r>    1.4794    0.0000 </r>
       <r>    1.5705    0.0000 </r>
       <r>    1.6391    0.0000 </r>
       <r>    1.6415    0.0000 </r>
       <r>    1.6715    0.0000 </r>
       <r>    1.7802    0.0000 </r>
       <r>    1.7805    0.0000 </r>
       <r>    1.8012    0.0000 </r>
       <r>    1.8666    0.0000 </r>
      </set>
      <set comment="kpoint 9">
       <r>  -25.8419    1.0000 </r>
       <r>  -25.5467    1.0000 </r>
       <r>  -25.0345    1.0000 </r>
       <r>  -25.0154    1.0000 </r>
       <r>  -24.8825    1.0000 </r>
       <r>  -23.6255    1.0000 </r>
       <r>  -23.6245    1.0000 </r>
       <r>  -23.5911    1.0000 </r>
       <r>  -22.7084    1.0000 </r>
       <r>  -22.7025    1.0000 </r>
       <r>  -22.4508    1.0000 </r>
       <r>  -22.4443    1.0000 </r>
       <r>  -20.3413    1.0000 </r>
       <r>  -20.3364    1.0000 </r>
       <r>  -20.2825    1.0000 </r>
       <r>  -19.7529    1.0000 </r>
       <r>  -19.7481    1.0000 </r>
       <r>  -19.7099    1.0000 </r>
       <r>  -17.8582    1.0000 </r>
       <r>  -17.8064    1.0000 </r>
       <r>  -17.0950    1.0000 </r>
       <r>  -16.8798    1.0000 </r>
       <r>  -16.5640    1.0000 </r>
       <r>  -16.3455    1.0000 </r>
       <r>  -15.9234    1.0000 </r>
       <r>  -15.8354    1.0000 </r>
       <r>  -15.0963    1.0000 </r>
       <r>  -15.0240    1.0000 </r>
       <r>  -14.1252    1.0000 </r>
       <r>  -13.9334    1.0000 </r>
       <r>  -13.9156    1.0000 </r>
       <r>  -13.9077    1.0000 </r>
       <r>  -13.8220    1.0000 </r>
       <r>  -13.6335    1.0000 </r>
       <r>  -13.4322    1.0000 </r>
       <r>  -13.0489    1.0000 </r>
       <r>  -12.9616    1.0000 </r>
       <r>  -12.2594    1.0000 </r>
       <r>  -11.8656    1.0000 </r>
       <r>  -11.8573    1.0000 </r>
       <r>  -11.6209    1.0000 </r>
       <r>  -11.6044    1.0000 </r>
       <r>  -11.5532    1.0000 </r>
       <r>  -11.1099    1.0000 </r>
       <r>  -10.6254    1.0000 </r>
       <r>  -10.5553    1.0000 </r>
       <r>  -10.5427    1.0000 </r>
       <r>  -10.2845    1.0000 </r>
       <r>  -10.2396    1.0000 </r>
       <r>  -10.0979    1.0000 </r>
       <r>  -10.0149    1.0000 </r>
       <r>   -9.7576    1.0000 </r>
       <r>   -9.7419    1.0000 </r>
       <r>   -8.9582    1.0000 </r>
       <r>   -8.7857    1.0000 </r>
       <r>   -8.7806    1.0000 </r>
       <r>   -8.7301    1.0000 </r>
       <r>   -8.7080    1.0000 </r>
       <r>   -8.2286    1.0000 </r>
       <r>   -8.2271    1.0000 </r>
       <r>   -7.8864    1.0000 </r>
       <r>   -7.8857    1.0000 </r>
       <r>   -7.2099    1.0000 </r>
       <r>   -7.1998    1.0000 </r>
       <r>   -7.0146    1.0000 </r>
       <r>   -6.8446    1.0000 </r>
       <r>   -6.8340    1.0000 </r>
       <r>   -6.7942    1.0000 </r>
       <r>   -6.1640    1.0000 </r>
       <r>   -6.1601    1.0000 </r>
       <r>   -5.8579    1.0000 </r>
       <r>   -5.8525    1.0000 </r>
       <r>   -5.7059    1.0000 </r>
       <r>   -5.7042    1.0000 </r>
       <r>   -5.6242    1.0000 </r>
       <r>   -4.8051    1.0000 </r>
       <r>   -4.8026    1.0000 </r>
       <r>   -4.8025    1.0000 </r>
       <r>   -2.5781    0.0000 </r>
       <r>   -2.5761    0.0000 </r>
       <r>   -2.2161    0.0000 </r>
       <r>   -2.2092    0.0000 </r>
       <r>   -1.7262    0.0000 </r>
       <r>   -1.7213    0.0000 </r>
       <r>   -1.6840    0.0000 </r>
       <r>   -1.6145    0.0000 </r>
       <r>   -1.3172    0.0000 </r>
       <r>   -1.2961    0.0000 </r>
       <r>   -1.0468    0.0000 </r>
       <r>   -0.5910    0.0000 </r>
       <r>   -0.3398    0.0000 </r>
       <r>   -0.2476    0.0000 </r>
       <r>    0.1828    0.0000 </r>
       <r>    0.4742    0.0000 </r>
       <r>    0.5831    0.0000 </r>
       <r>    0.7502    0.0000 </r>
       <r>    0.8740    0.0000 </r>
       <r>    0.9226    0.0000 </r>
       <r>    1.1577    0.0000 </r>
       <r>    1.2164    0.0000 </r>
       <r>    1.2361    0.0000 </r>
       <r>    1.3521    0.0000 </r>
       <r>    1.4360    0.0000 </r>
       <r>    1.4624    0.0000 </r>
       <r>    1.5696    0.0000 </r>
       <r>    1.6343    0.0000 </r>
       <r>    1.6468    0.0000 </r>
       <r>    1.6706    0.0000 </r>
       <r>    1.7670    0.0000 </r>
       <r>    1.7817    0.0000 </r>
       <r>    1.8142    0.0000 </r>
       <r>    1.8674    0.0000 </r>
      </set>
      <set comment="kpoint 10">
       <r>  -25.8417    1.0000 </r>
       <r>  -25.5475    1.0000 </r>
       <r>  -25.0345    1.0000 </r>
       <r>  -25.0114    1.0000 </r>
       <r>  -24.8861    1.0000 </r>
       <r>  -23.6255    1.0000 </r>
       <r>  -23.6242    1.0000 </r>
       <r>  -23.5913    1.0000 </r>
       <r>  -22.7084    1.0000 </r>
       <r>  -22.7010    1.0000 </r>
       <r>  -22.4523    1.0000 </r>
       <r>  -22.4443    1.0000 </r>
       <r>  -20.3413    1.0000 </r>
       <r>  -20.3353    1.0000 </r>
       <r>  -20.2842    1.0000 </r>
       <r>  -19.7529    1.0000 </r>
       <r>  -19.7473    1.0000 </r>
       <r>  -19.7103    1.0000 </r>
       <r>  -17.8583    1.0000 </r>
       <r>  -17.7937    1.0000 </r>
       <r>  -17.1294    1.0000 </r>
       <r>  -16.8797    1.0000 </r>
       <r>  -16.5481    1.0000 </r>
       <r>  -16.3446    1.0000 </r>
       <r>  -15.9233    1.0000 </r>
       <r>  -15.8133    1.0000 </r>
       <r>  -15.1146    1.0000 </r>
       <r>  -15.0241    1.0000 </r>
       <r>  -14.1212    1.0000 </r>
       <r>  -13.9397    1.0000 </r>
       <r>  -13.9155    1.0000 </r>
       <r>  -13.9077    1.0000 </r>
       <r>  -13.8213    1.0000 </r>
       <r>  -13.6336    1.0000 </r>
       <r>  -13.4439    1.0000 </r>
       <r>  -13.0490    1.0000 </r>
       <r>  -12.9468    1.0000 </r>
       <r>  -12.2552    1.0000 </r>
       <r>  -11.8659    1.0000 </r>
       <r>  -11.8556    1.0000 </r>
       <r>  -11.6242    1.0000 </r>
       <r>  -11.6040    1.0000 </r>
       <r>  -11.5495    1.0000 </r>
       <r>  -11.1167    1.0000 </r>
       <r>  -10.6254    1.0000 </r>
       <r>  -10.5515    1.0000 </r>
       <r>  -10.5339    1.0000 </r>
       <r>  -10.2977    1.0000 </r>
       <r>  -10.2477    1.0000 </r>
       <r>  -10.1030    1.0000 </r>
       <r>  -10.0068    1.0000 </r>
       <r>   -9.7570    1.0000 </r>
       <r>   -9.7382    1.0000 </r>
       <r>   -8.9581    1.0000 </r>
       <r>   -8.7854    1.0000 </r>
       <r>   -8.7792    1.0000 </r>
       <r>   -8.7312    1.0000 </r>
       <r>   -8.7086    1.0000 </r>
       <r>   -8.2290    1.0000 </r>
       <r>   -8.2269    1.0000 </r>
       <r>   -7.8861    1.0000 </r>
       <r>   -7.8851    1.0000 </r>
       <r>   -7.2035    1.0000 </r>
       <r>   -7.1906    1.0000 </r>
       <r>   -7.0156    1.0000 </r>
       <r>   -6.8549    1.0000 </r>
       <r>   -6.8404    1.0000 </r>
       <r>   -6.7944    1.0000 </r>
       <r>   -6.1618    1.0000 </r>
       <r>   -6.1570    1.0000 </r>
       <r>   -5.8595    1.0000 </r>
       <r>   -5.8528    1.0000 </r>
       <r>   -5.7061    1.0000 </r>
       <r>   -5.7042    1.0000 </r>
       <r>   -5.6245    1.0000 </r>
       <r>   -4.8051    1.0000 </r>
       <r>   -4.8026    1.0000 </r>
       <r>   -4.8026    1.0000 </r>
       <r>   -2.5792    0.0000 </r>
       <r>   -2.5768    0.0000 </r>
       <r>   -2.2151    0.0000 </r>
       <r>   -2.2069    0.0000 </r>
       <r>   -1.7278    0.0000 </r>
       <r>   -1.7230    0.0000 </r>
       <r>   -1.6813    0.0000 </r>
       <r>   -1.6125    0.0000 </r>
       <r>   -1.3174    0.0000 </r>
       <r>   -1.2911    0.0000 </r>
       <r>   -1.0554    0.0000 </r>
       <r>   -0.6002    0.0000 </r>
       <r>   -0.3415    0.0000 </r>
       <r>   -0.2319    0.0000 </r>
[...]
       <r>   -5.7043    1.0000 </r>
       <r>   -5.6229    1.0000 </r>
       <r>   -4.8054    1.0000 </r>
       <r>   -4.8025    1.0000 </r>
       <r>   -4.8023    1.0000 </r>
       <r>   -2.5730    0.0000 </r>
       <r>   -2.5729    0.0000 </r>
       <r>   -2.2207    0.0000 </r>
       <r>   -2.2202    0.0000 </r>
       <r>   -1.7133    0.0000 </r>
       <r>   -1.7126    0.0000 </r>
       <r>   -1.7026    0.0000 </r>
       <r>   -1.6242    0.0000 </r>
       <r>   -1.3160    0.0000 </r>
       <r>   -1.3145    0.0000 </r>
       <r>   -1.0112    0.0000 </r>
       <r>   -0.5348    0.0000 </r>
       <r>   -0.3322    0.0000 </r>
       <r>   -0.3317    0.0000 </r>
       <r>    0.1979    0.0000 </r>
       <r>    0.5115    0.0000 </r>
       <r>    0.5124    0.0000 </r>
       <r>    0.6231    0.0000 </r>
       <r>    0.8763    0.0000 </r>
       <r>    0.9591    0.0000 </r>
       <r>    1.2165    0.0000 </r>
       <r>    1.3215    0.0000 </r>
       <r>    1.3956    0.0000 </r>
       <r>    1.3961    0.0000 </r>
       <r>    1.4990    0.0000 </r>
       <r>    1.5002    0.0000 </r>
       <r>    1.5993    0.0000 </r>
       <r>    1.6021    0.0000 </r>
       <r>    1.6198    0.0000 </r>
       <r>    1.6766    0.0000 </r>
       <r>    1.7403    0.0000 </r>
       <r>    1.7413    0.0000 </r>
       <r>    1.7798    0.0000 </r>
       <r>    1.8290    0.0000 </r>
      </set>
     </set>
    </set>
   </array>
  </eigenvalues>
  <separator name="orbital magnetization" >
   <v name="MAGDIPOLOUT">      0.00000000      0.00000000      0.00000000</v>
  </separator>
  <dos>
   <i name="efermi">     -4.70952021 </i>
   <total>
    <array>
     <dimension dim="1">gridpoints</dimension>
     <dimension dim="2">spin</dimension>
     <field>energy</field>
     <field>total</field>
     <field>integrated</field>
     <set>
      <set comment="spin 1">
       <r>   -27.2376     0.0000     0.0000 </r>
       <r>   -27.1353     0.0000     0.0000 </r>
       <r>   -27.0330     0.0000     0.0000 </r>
       <r>   -26.9307     0.0000     0.0000 </r>
       <r>   -26.8285     0.0000     0.0000 </r>
       <r>   -26.7262     0.0000     0.0000 </r>
       <r>   -26.6239     0.0000     0.0000 </r>
       <r>   -26.5216     0.0000     0.0000 </r>
       <r>   -26.4193     0.0000     0.0000 </r>
       <r>   -26.3170     0.0000     0.0000 </r>
       <r>   -26.2148     0.0000     0.0000 </r>
       <r>   -26.1125     0.0000     0.0000 </r>
       <r>   -26.0102     0.0000     0.0000 </r>
       <r>   -25.9079     0.0000     0.0000 </r>
       <r>   -25.8056    19.5534     2.0000 </r>
       <r>   -25.7033     0.0000     2.0000 </r>
       <r>   -25.6010     0.0000     2.0000 </r>
       <r>   -25.4988    19.5534     4.0000 </r>
       <r>   -25.3965     0.0000     4.0000 </r>
       <r>   -25.2942     0.0000     4.0000 </r>
       <r>   -25.1919     0.0000     4.0000 </r>
       <r>   -25.0896     0.0000     4.0000 </r>
       <r>   -24.9873    28.5782     6.9231 </r>
       <r>   -24.8851    18.2832     9.4368 </r>
       <r>   -24.7828     0.0000    10.0000 </r>
       <r>   -24.6805     0.0000    10.0000 </r>
       <r>   -24.5782     0.0000    10.0000 </r>
       <r>   -24.4759     0.0000    10.0000 </r>
       <r>   -24.3736     0.0000    10.0000 </r>
       <r>   -24.2714     0.0000    10.0000 </r>
       <r>   -24.1691     0.0000    10.0000 </r>
       <r>   -24.0668     0.0000    10.0000 </r>
       <r>   -23.9645     0.0000    10.0000 </r>
       <r>   -23.8622     0.0000    10.0000 </r>
       <r>   -23.7599     0.0000    10.0000 </r>
       <r>   -23.6577     0.0001    10.0000 </r>
       <r>   -23.5554    58.6601    16.0000 </r>
       <r>   -23.4531     0.0000    16.0000 </r>
       <r>   -23.3508     0.0000    16.0000 </r>
       <r>   -23.2485     0.0000    16.0000 </r>
       <r>   -23.1462     0.0000    16.0000 </r>
       <r>   -23.0439     0.0000    16.0000 </r>
       <r>   -22.9417     0.0000    16.0000 </r>
       <r>   -22.8394     0.0000    16.0000 </r>
       <r>   -22.7371     0.0006    16.0001 </r>
       <r>   -22.6348    39.1062    20.0000 </r>
       <r>   -22.5325     0.0000    20.0000 </r>
       <r>   -22.4302    38.5742    23.9455 </r>
       <r>   -22.3280     0.0000    24.0000 </r>
       <r>   -22.2257     0.0000    24.0000 </r>
       <r>   -22.1234     0.0000    24.0000 </r>
       <r>   -22.0211     0.0000    24.0000 </r>
       <r>   -21.9188     0.0000    24.0000 </r>
       <r>   -21.8165     0.0000    24.0000 </r>
       <r>   -21.7143     0.0000    24.0000 </r>
       <r>   -21.6120     0.0000    24.0000 </r>
       <r>   -21.5097     0.0000    24.0000 </r>
       <r>   -21.4074     0.0000    24.0000 </r>
       <r>   -21.3051     0.0000    24.0000 </r>
       <r>   -21.2028     0.0000    24.0000 </r>
       <r>   -21.1005     0.0000    24.0000 </r>
       <r>   -20.9983     0.0000    24.0000 </r>
       <r>   -20.8960     0.0000    24.0000 </r>
       <r>   -20.7937     0.0000    24.0000 </r>
       <r>   -20.6914     0.0000    24.0000 </r>
       <r>   -20.5891     0.0000    24.0000 </r>
       <r>   -20.4868     0.0000    24.0000 </r>
       <r>   -20.3846     0.0000    24.0000 </r>
       <r>   -20.2823    53.9222    29.5154 </r>
       <r>   -20.1800     0.0000    30.0000 </r>
       <r>   -20.0777     0.0000    30.0000 </r>
       <r>   -19.9754     0.0000    30.0000 </r>
       <r>   -19.8731     0.0000    30.0000 </r>
       <r>   -19.7709     0.1182    30.0121 </r>
       <r>   -19.6686    34.2172    36.0000 </r>
       <r>   -19.5663     0.0000    36.0000 </r>
       <r>   -19.4640     0.0000    36.0000 </r>
       <r>   -19.3617     0.0000    36.0000 </r>
       <r>   -19.2594     0.0000    36.0000 </r>
       <r>   -19.1571     0.0000    36.0000 </r>
       <r>   -19.0549     0.0000    36.0000 </r>
       <r>   -18.9526     0.0000    36.0000 </r>
       <r>   -18.8503     0.0000    36.0000 </r>
       <r>   -18.7480     0.0000    36.0000 </r>
       <r>   -18.6457     0.0000    36.0000 </r>
       <r>   -18.5434     0.0000    36.0000 </r>
       <r>   -18.4412     0.0000    36.0000 </r>
       <r>   -18.3389     0.0000    36.0000 </r>
       <r>   -18.2366     0.0000    36.0000 </r>
       <r>   -18.1343     0.0000    36.0000 </r>
       <r>   -18.0320     0.0000    36.0000 </r>
       <r>   -17.9297     0.0000    36.0000 </r>
       <r>   -17.8275    23.5478    38.4086 </r>
       <r>   -17.7252     2.9833    38.8718 </r>
       <r>   -17.6229     7.8489    39.7695 </r>
       <r>   -17.5206     0.0000    40.0000 </r>
       <r>   -17.4183     2.9481    40.3015 </r>
       <r>   -17.3160     5.5401    41.0333 </r>
       <r>   -17.2138     1.8305    41.2539 </r>
       <r>   -17.1115     1.3155    41.4346 </r>
       <r>   -17.0092     1.2747    41.6304 </r>
       <r>   -16.9069     1.6819    41.8387 </r>
       <r>   -16.8046    20.2042    44.0000 </r>
       <r>   -16.7023     0.6373    44.0652 </r>
       <r>   -16.6000     2.3993    44.4121 </r>
       <r>   -16.4978     3.7959    44.8883 </r>
       <r>   -16.3955     4.5614    46.0000 </r>
       <r>   -16.2932    19.5534    48.0000 </r>
       <r>   -16.1909     0.0000    48.0000 </r>
       <r>   -16.0886     0.0000    48.0000 </r>
       <r>   -15.9863     0.0000    48.0000 </r>
       <r>   -15.8841    23.0911    50.3619 </r>
       <r>   -15.7818     2.3456    50.6733 </r>
       <r>   -15.6795     1.8081    50.9183 </r>
       <r>   -15.5772     5.1798    51.4965 </r>
       <r>   -15.4749     3.5847    52.0000 </r>
       <r>   -15.3726     1.9963    52.2042 </r>
       <r>   -15.2704     6.1635    52.9638 </r>
       <r>   -15.1681     2.1187    53.2500 </r>
       <r>   -15.0658     2.8518    53.5917 </r>
       <r>   -14.9635    22.4862    56.0000 </r>
       <r>   -14.8612     0.0000    56.0000 </r>
       <r>   -14.7589     0.0000    56.0000 </r>
       <r>   -14.6566     0.0000    56.0000 </r>
       <r>   -14.5544     0.0000    56.0000 </r>
       <r>   -14.4521     0.0000    56.0000 </r>
       <r>   -14.3498     0.0000    56.0000 </r>
       <r>   -14.2475     0.0000    56.0000 </r>
       <r>   -14.1452     0.7861    56.0804 </r>
       <r>   -14.0429    14.0118    57.9999 </r>
       <r>   -13.9407    13.7097    59.4023 </r>
       <r>   -13.8384    42.8590    64.0175 </r>
       <r>   -13.7361     3.2565    66.0000 </r>
       <r>   -13.6338     9.9795    67.0207 </r>
       <r>   -13.5315     0.0386    68.0040 </r>
       <r>   -13.4292     9.6202    69.4841 </r>
       <r>   -13.3270     3.9106    70.0000 </r>
       <r>   -13.2247     0.0000    70.0000 </r>
       <r>   -13.1224     0.0000    70.0000 </r>
       <r>   -13.0201    22.2926    72.2802 </r>
       <r>   -12.9178     3.4897    72.7236 </r>
       <r>   -12.8155    11.0802    74.0000 </r>
       <r>   -12.7133     0.0000    74.0000 </r>
       <r>   -12.6110     0.0000    74.0000 </r>
       <r>   -12.5087     0.0000    74.0000 </r>
       <r>   -12.4064     0.0000    74.0000 </r>
       <r>   -12.3041     0.0001    74.0000 </r>
       <r>   -12.2018    19.5233    75.9969 </r>
       <r>   -12.0995     0.0000    76.0000 </r>
       <r>   -11.9973     0.0000    76.0000 </r>
       <r>   -11.8950     0.0018    76.0002 </r>
       <r>   -11.7927    39.1049    80.0000 </r>
       <r>   -11.6904     0.0000    80.0000 </r>
       <r>   -11.5881    38.5861    83.9467 </r>
       <r>   -11.4858    16.9457    86.0000 </r>
       <r>   -11.3836     0.0000    86.0000 </r>
       <r>   -11.2813     0.0000    86.0000 </r>
       <r>   -11.1790     3.4436    86.3522 </r>
       <r>   -11.0767     8.6063    87.9470 </r>
       <r>   -10.9744     0.0000    88.0000 </r>
       <r>   -10.8721     0.0000    88.0000 </r>
       <r>   -10.7699     0.0000    88.0000 </r>
       <r>   -10.6676     0.0000    88.0000 </r>
       <r>   -10.5653    26.6213    90.7229 </r>
       <r>   -10.4630    10.0696    92.9634 </r>
       <r>   -10.3607    15.9575    94.7323 </r>
       <r>   -10.2584    17.0357    97.0759 </r>
       <r>   -10.1561    12.2078    98.7487 </r>
       <r>   -10.0539    13.0718   100.2371 </r>
       <r>    -9.9516     7.8828   101.2396 </r>
       <r>    -9.8493     5.5400   102.0000 </r>
       <r>    -9.7470    22.5980   104.3114 </r>
       <r>    -9.6447    11.4059   106.0000 </r>
       <r>    -9.5424     0.0000   106.0000 </r>
       <r>    -9.4402     0.0000   106.0000 </r>
       <r>    -9.3379     0.0000   106.0000 </r>
       <r>    -9.2356     0.0000   106.0000 </r>
       <r>    -9.1333     0.0000   106.0000 </r>
       <r>    -9.0310     0.0000   106.0000 </r>
       <r>    -8.9287    19.5530   108.0000 </r>
       <r>    -8.8265     0.0000   108.0000 </r>
       <r>    -8.7242    57.0084   113.8311 </r>
       <r>    -8.6219     0.0000   116.0000 </r>
       <r>    -8.5196     0.0000   116.0000 </r>
       <r>    -8.4173     0.0000   116.0000 </r>
       <r>    -8.3150     0.0000   116.0000 </r>
       <r>    -8.2128    38.1444   119.9016 </r>
       <r>    -8.1105     0.0000   120.0000 </r>
       <r>    -8.0082     0.0000   120.0000 </r>
       <r>    -7.9059     0.0762   120.0078 </r>
       <r>    -7.8036    12.0549   124.0000 </r>
       <r>    -7.7013     0.0000   124.0000 </r>
       <r>    -7.5990     0.0000   124.0000 </r>
       <r>    -7.4968     0.0000   124.0000 </r>
       <r>    -7.3945     0.0000   124.0000 </r>
       <r>    -7.2922     0.0000   124.0000 </r>
       <r>    -7.1899    12.7352   125.3026 </r>
       <r>    -7.0876    21.6752   127.8837 </r>
       <r>    -6.9853    24.0237   130.4572 </r>
       <r>    -6.8831     7.7677   131.4612 </r>
       <r>    -6.7808    38.6128   135.9495 </r>
       <r>    -6.6785     0.0000   136.0000 </r>
       <r>    -6.5762     0.0000   136.0000 </r>
       <r>    -6.4739     0.0000   136.0000 </r>
       <r>    -6.3716     0.0000   136.0000 </r>
       <r>    -6.2694     0.0000   136.0000 </r>
       <r>    -6.1671     7.4203   136.7590 </r>
       <r>    -6.0648    16.2927   140.0000 </r>
       <r>    -5.9625     0.0000   140.0000 </r>
       <r>    -5.8602    17.1577   141.7550 </r>
       <r>    -5.7579     0.0000   144.0000 </r>
       <r>    -5.6556    39.1070   148.0000 </r>
       <r>    -5.5534    19.5531   150.0000 </r>
       <r>    -5.4511     0.0000   150.0000 </r>
       <r>    -5.3488     0.0000   150.0000 </r>
       <r>    -5.2465     0.0000   150.0000 </r>
       <r>    -5.1442     0.0000   150.0000 </r>
       <r>    -5.0419     0.0000   150.0000 </r>
       <r>    -4.9397     0.0000   150.0000 </r>
       <r>    -4.8374     0.0001   150.0000 </r>
       <r>    -4.7351    58.6601   156.0000 </r>
       <r>    -4.6328     0.0000   156.0000 </r>
       <r>    -4.5305     0.0000   156.0000 </r>
       <r>    -4.4282     0.0000   156.0000 </r>
       <r>    -4.3260     0.0000   156.0000 </r>
       <r>    -4.2237     0.0000   156.0000 </r>
       <r>    -4.1214     0.0000   156.0000 </r>
       <r>    -4.0191     0.0000   156.0000 </r>
       <r>    -3.9168     0.0000   156.0000 </r>
       <r>    -3.8145     0.0000   156.0000 </r>
       <r>    -3.7123     0.0000   156.0000 </r>
       <r>    -3.6100     0.0000   156.0000 </r>
       <r>    -3.5077     0.0000   156.0000 </r>
       <r>    -3.4054     0.0000   156.0000 </r>
       <r>    -3.3031     0.0000   156.0000 </r>
       <r>    -3.2008     0.0000   156.0000 </r>
       <r>    -3.0985     0.0000   156.0000 </r>
       <r>    -2.9963     0.0000   156.0000 </r>
       <r>    -2.8940     0.0000   156.0000 </r>
       <r>    -2.7917     0.0000   156.0000 </r>
       <r>    -2.6894     0.0000   156.0000 </r>
       <r>    -2.5871     9.9461   157.0173 </r>
       <r>    -2.4848     0.0000   160.0000 </r>
       <r>    -2.3826     0.0000   160.0000 </r>
       <r>    -2.2803     0.0000   160.0000 </r>
       <r>    -2.1780    35.3207   163.6127 </r>
       <r>    -2.0757     0.0000   164.0000 </r>
       <r>    -1.9734     0.0000   164.0000 </r>
       <r>    -1.8711     0.0000   164.0000 </r>
       <r>    -1.7689     0.0000   164.0000 </r>
       <r>    -1.6666    55.2873   169.6550 </r>
       <r>    -1.5643    19.5531   172.0000 </r>
       <r>    -1.4620     0.0000   172.0000 </r>
       <r>    -1.3597     0.0000   172.0000 </r>
       <r>    -1.2574    28.5397   174.9192 </r>
       <r>    -1.1551    10.5168   176.3757 </r>
       <r>    -1.0529     5.4784   177.4270 </r>
       <r>    -0.9506     3.9104   178.0000 </r>
       <r>    -0.8483     0.0000   178.0000 </r>
       <r>    -0.7460     0.0000   178.0000 </r>
       <r>    -0.6437     8.6266   178.8824 </r>
       <r>    -0.5414     5.9788   179.8449 </r>
       <r>    -0.4392     0.0000   180.0000 </r>
       <r>    -0.3369    16.1723   181.6542 </r>
       <r>    -0.2346     3.3621   182.5772 </r>
       <r>    -0.1323     4.6330   183.1406 </r>
       <r>    -0.0300     5.5400   184.0000 </r>
       <r>     0.0723     0.0000   184.0000 </r>
       <r>     0.1745    13.0229   185.3320 </r>
       <r>     0.2768     1.6285   186.0000 </r>
       <r>     0.3791     0.0000   186.0000 </r>
       <r>     0.4814     3.5819   186.3664 </r>
       <r>     0.5837    18.9073   188.7340 </r>
       <r>     0.6860    11.6217   190.1554 </r>
       <r>     0.7883     6.3781   190.9857 </r>
       <r>     0.8905    17.8324   192.9573 </r>
       <r>     0.9928    26.9766   196.0926 </r>
       <r>     1.0951     6.4591   197.2607 </r>
       <r>     1.1974    17.5836   199.8319 </r>
       <r>     1.2997    23.8602   203.4739 </r>
       <r>     1.4020    22.1705   206.3010 </r>
       <r>     1.5042    19.2256   208.8332 </r>
       <r>     1.6065    21.9065   211.7741 </r>
       <r>     1.7088    36.8913   216.2068 </r>
       <r>     1.8111    32.1892   219.8259 </r>
       <r>     1.9134    17.5673   222.2969 </r>
       <r>     2.0157    10.9616   223.5546 </r>
       <r>     2.1179     1.6288   224.0000 </r>
       <r>     2.2202     0.0000   224.0000 </r>
       <r>     2.3225     0.0000   224.0000 </r>
       <r>     2.4248     0.0000   224.0000 </r>
       <r>     2.5271     0.0000   224.0000 </r>
       <r>     2.6294     0.0000   224.0000 </r>
       <r>     2.7316     0.0000   224.0000 </r>
       <r>     2.8339     0.0000   224.0000 </r>
       <r>     2.9362     0.0000   224.0000 </r>
       <r>     3.0385     0.0000   224.0000 </r>
       <r>     3.1408     0.0000   224.0000 </r>
       <r>     3.2431     0.0000   224.0000 </r>
       <r>     3.3454     0.0000   224.0000 </r>
       <r>     3.4476     0.0000   224.0000 </r>
      </set>
     </set>
    </array>
   </total>
  </dos>
 </calculation>
 <structure name="finalpos" >
  <crystal>
   <varray name="basis" >
    <v>      14.29136500       0.00189923       0.00000000 </v>
    <v>       7.14732728      12.37573553       0.00000000 </v>
    <v>      -0.00000000       0.00000000      20.00000000 </v>
   </varray>
   <i name="volume">   3537.05158297 </i>
   <varray name="rec_basis" >
    <v>       0.06997769      -0.04041404       0.00000000 </v>
    <v>      -0.00001074       0.08080948      -0.00000000 </v>
    <v>       0.00000000       0.00000000       0.05000000 </v>
   </varray>
  </crystal>
  <varray name="positions" >
   <v>       0.30856158       0.30856158       0.51655530 </v>
   <v>       0.47569341       0.30852870       0.51645582 </v>
   <v>       0.30852870       0.47569341       0.51645582 </v>
   <v>       0.75324492       0.75324492       0.51259492 </v>
   <v>       0.58615580       0.75327572       0.51255654 </v>
   <v>       0.75327572       0.58615580       0.51255654 </v>
   <v>       0.47644816       0.47644816       0.64133267 </v>
   <v>       0.13991855       0.47657610       0.64140024 </v>
   <v>       0.47657610       0.13991855       0.64140024 </v>
   <v>       0.50349450       0.50349450       0.46071656 </v>
   <v>       0.55730393       0.55730393       0.45836612 </v>
   <v>       0.08576708       0.50360622       0.46077443 </v>
   <v>       0.97815099       0.55744432       0.45841331 </v>
   <v>       0.50360622       0.08576708       0.46077443 </v>
   <v>       0.55744432       0.97815099       0.45841331 </v>
   <v>       0.49631582       0.49631582       0.68545541 </v>
   <v>       0.43575224       0.43575224       0.64237166 </v>
   <v>       0.58464930       0.58464930       0.62490648 </v>
   <v>       0.10014574       0.49625101       0.68551566 </v>
   <v>       0.22133476       0.43569098       0.64243932 </v>
   <v>       0.92340186       0.58457250       0.62496726 </v>
   <v>       0.49625101       0.10014574       0.68551566 </v>
   <v>       0.43569098       0.22133476       0.64243932 </v>
   <v>       0.58457250       0.92340186       0.62496726 </v>
   <v>       0.25856712       0.41711598       0.51604231 </v>
   <v>       0.41711598       0.25856712       0.51604231 </v>
   <v>       0.41709550       0.41709550       0.51599744 </v>
   <v>       0.80284157       0.64490518       0.51238799 </v>
   <v>       0.64490518       0.80284157       0.51238799 </v>
   <v>       0.64493115       0.64493115       0.51235935 </v>
   <v>       0.58456272       0.58456272       0.51666612 </v>
   <v>       0.56034192       0.56034192       0.57935788 </v>
   <v>       0.50394261       0.50394261       0.58218509 </v>
   <v>       0.47748255       0.47748255       0.51925073 </v>
   <v>       0.92360406       0.58455823       0.51670758 </v>
   <v>       0.97203765       0.56028386       0.57941475 </v>
   <v>       0.08487670       0.50395129       0.58225517 </v>
   <v>       0.13777844       0.47751676       0.51931180 </v>
   <v>       0.58455823       0.92360406       0.51670758 </v>
   <v>       0.56028386       0.97203765       0.57941475 </v>
   <v>       0.50395129       0.08487670       0.58225517 </v>
   <v>       0.47751676       0.13777844       0.51931180 </v>
  </varray>
 </structure>
</modeling>
