<?xml version="1.0" encoding="ISO-8859-1"?>
<modeling>
 <generator>
  <i name="program" type="string">vasp </i>
  <i name="version" type="string">5.4.4.18Apr17-6-g9f103f2a35  </i>
  <i name="subversion" type="string">(build Jun 07 2020 16:50:00) complex            parallel </i>
  <i name="platform" type="string">LinuxIFC </i>
  <i name="date" type="string">2023 02 16 </i>
  <i name="time" type="string">20:06:48 </i>
 </generator>
 <incar>
  <i type="string" name="SYSTEM">Simulation for cell shape cell volume r</i>
  <i type="int" name="ISTART">     1</i>
  <i type="string" name="PREC">high</i>
  <i type="string" name="ALGO">48</i>
  <i type="int" name="ICHARG">    11</i>
  <i type="int" name="NELM">   200</i>
  <i type="int" name="IBRION">    -1</i>
  <i name="EDIFF">      0.00001000</i>
  <i name="EDIFFG">     -0.01000000</i>
  <i type="int" name="NSW">     0</i>
  <i type="int" name="ISIF">     2</i>
  <i name="ENCUT">    500.00000000</i>
  <i name="POTIM">      0.30000000</i>
  <i type="string" name="LREAL">A</i>
  <i type="int" name="ISMEAR">     0</i>
  <i name="SIGMA">      0.01000000</i>
  <i type="int" name="NWRITE">     0</i>
  <i type="logical" name="LWAVE"> F  </i>
  <i type="logical" name="LCHARG"> F  </i>
  <v type="int" name="KPOINT_BSE">    -1     0     0     0</v>
  <i type="int" name="NELM">   200</i>
  <i type="string" name="GGA">PE</i>
 </incar>
 <structure name="primitive_cell" >
  <crystal>
   <varray name="basis" >
    <v>      45.95065165       0.01400540       0.00000000 </v>
    <v>     -22.96324985      39.73100811       0.00000000 </v>
    <v>       0.00000000       0.00000000      20.00000000 </v>
   </varray>
   <i name="volume">  36519.74646043 </i>
   <varray name="rec_basis" >
    <v>       0.02175864       0.01257580       0.00000000 </v>
    <v>      -0.00000767       0.02516483       0.00000000 </v>
    <v>       0.00000000       0.00000000       0.05000000 </v>
   </varray>
  </crystal>
  <varray name="positions" >
   <v>       0.04626198      -0.46010872       0.47704344 </v>
   <v>       0.07966632      -0.44369101       0.48117349 </v>
   <v>       0.02881402      -0.48869410      -0.48731060 </v>
   <v>       0.09286949      -0.42121189       0.44989645 </v>
   <v>       0.04486961       0.49887974      -0.44588751 </v>
   <v>      -0.00830326       0.49335766      -0.49366957 </v>
   <v>       0.09829868      -0.45403159      -0.47940628 </v>
   <v>      -0.00918630      -0.47047781       0.43879547 </v>
   <v>       0.07972146      -0.48364723      -0.44205695 </v>
   <v>      -0.02442022      -0.49376880       0.46628425 </v>
   <v>       0.02960678       0.47585868      -0.41763568 </v>
   <v>      -0.02569602       0.46440970      -0.45908437 </v>
   <v>       0.13536054      -0.43534978      -0.48206441 </v>
   <v>       0.09264857      -0.49272677      -0.40973159 </v>
   <v>       0.13965371      -0.38611325      -0.48502164 </v>
   <v>      -0.05928693       0.48888741       0.46288711 </v>
   <v>       0.15312873      -0.40002730      -0.48820971 </v>
   <v>      -0.05912171       0.44808563      -0.46287346 </v>
   <v>       0.15305973      -0.45302777      -0.48406417 </v>
   <v>      -0.07226348       0.49836629       0.43174356 </v>
   <v>       0.13933064      -0.48043660      -0.48062705 </v>
   <v>      -0.07781542       0.45891126       0.49920697 </v>
   <v>      -0.07228048       0.42525841      -0.43252453 </v>
   <v>       0.18777341      -0.38267708       0.49999876 </v>
   <v>       0.18774770      -0.43606129      -0.49561336 </v>
   <v>       0.20456162      -0.40106463       0.49540863 </v>
   <v>      -0.11488410       0.44027694      -0.49778242 </v>
   <v>       0.20866674      -0.34575344       0.49066265 </v>
   <v>      -0.11877559       0.48543439      -0.49545481 </v>
   <v>       0.20070238      -0.33041448      -0.41156773 </v>
   <v>      -0.13253407       0.45799224      -0.49344190 </v>
   <v>      -0.11925618       0.39102817      -0.49849413 </v>
   <v>       0.21517208      -0.32228565      -0.45807636 </v>
   <v>       0.22172177      -0.35014966       0.38873932 </v>
   <v>       0.20839729      -0.45243758       0.49848303 </v>
   <v>       0.22675281      -0.33317910       0.43093012 </v>
   <v>       0.23162643      -0.38765932       0.48663255 </v>
   <v>      -0.13270532       0.40491453      -0.49373395 </v>
   <v>       0.19863794      -0.47600177      -0.40398473 </v>
   <v>       0.22298514      -0.43526557       0.39654045 </v>
   <v>       0.21346047      -0.47007495      -0.44980115 </v>
   <v>       0.22764260      -0.44681315       0.44009779 </v>
   <v>       0.23983716      -0.29011172      -0.46052437 </v>
   <v>      -0.16717689       0.44092426      -0.48161122 </v>
   <v>       0.25165662      -0.29966296       0.42681680 </v>
   <v>      -0.16738081       0.38740658      -0.48188933 </v>
   <v>       0.25896949      -0.27927505       0.48389304 </v>
   <v>      -0.18407678       0.40580048      -0.47494957 </v>
   <v>       0.25230837      -0.45382637       0.43432847 </v>
   <v>       0.23912063      -0.47779802      -0.45537038 </v>
   <v>       0.26692892      -0.28927253       0.38211660 </v>
   <v>      -0.18145505       0.47784172       0.42660833 </v>
   <v>      -0.18787462       0.45722135      -0.47332390 </v>
   <v>      -0.17657353       0.33536594       0.43099017 </v>
   <v>      -0.19517471       0.47278098       0.47386693 </v>
   <v>      -0.18811400       0.35043796      -0.47458896 </v>
   <v>       0.25944915      -0.46743577       0.48719806 </v>
   <v>       0.24498831      -0.48984503      -0.41475765 </v>
   <v>      -0.19937727       0.44249595      -0.36965291 </v>
   <v>      -0.21113883       0.39234808      -0.46612647 </v>
   <v>      -0.20505806       0.45327861      -0.41295364 </v>
   <v>      -0.19213436       0.32703759       0.47594425 </v>
   <v>       0.29093347      -0.24654424       0.48665088 </v>
   <v>      -0.20449269       0.35431476      -0.37500159 </v>
   <v>      -0.20828881       0.33750761      -0.41707079 </v>
   <v>       0.28337649      -0.23115575      -0.41593899 </v>
   <v>      -0.21981365       0.48028748       0.47577522 </v>
   <v>       0.31153311      -0.23989417       0.43372989 </v>
   <v>       0.30113595      -0.22566122      -0.45666885 </v>
   <v>       0.29218870      -0.46654314       0.48367221 </v>
   <v>      -0.22994822       0.46190761      -0.40950134 </v>
   <v>       0.30125765      -0.44945106       0.38129899 </v>
   <v>      -0.21764951       0.29359634       0.48241868 </v>
   <v>      -0.23814177       0.47340491      -0.46775172 </v>
   <v>       0.31207620      -0.45385428       0.42591327 </v>
   <v>      -0.23279401       0.30578254      -0.41045962 </v>
   <v>       0.30355264      -0.47424404      -0.46072519 </v>
   <v>      -0.22265286       0.27511963       0.44335489 </v>
   <v>      -0.24457515       0.45813628      -0.36424745 </v>
   <v>      -0.23885203       0.28424655      -0.46149786 </v>
   <v>       0.34319665      -0.21510207       0.43865599 </v>
   <v>       0.33452185      -0.19987566      -0.45193717 </v>
   <v>       0.35922280      -0.21083141       0.39498959 </v>
   <v>      -0.27021174       0.47390339      -0.47063219 </v>
   <v>       0.35704100      -0.19520495       0.49626908 </v>
   <v>      -0.26334088       0.49521903       0.43047870 </v>
   <v>       0.34353275      -0.18462839      -0.40663206 </v>
   <v>       0.34565107      -0.44497418       0.42921259 </v>
   <v>       0.33575661      -0.46652510      -0.45907429 </v>
   <v>      -0.28082061       0.48358129       0.47187855 </v>
   <v>      -0.27134385       0.25213089      -0.45756843 </v>
   <v>       0.36223380      -0.43333333       0.38640178 </v>
   <v>       0.35875913      -0.44988465       0.48883827 </v>
   <v>       0.34432318      -0.47234599      -0.41252347 </v>
   <v>      -0.29044860       0.46070438      -0.41692878 </v>
   <v>       0.39877468      -0.21790166       0.48120191 </v>
   <v>      -0.28090229       0.26074392      -0.35588606 </v>
   <v>      -0.28233252       0.23256338       0.48740723 </v>
   <v>       0.39406221      -0.17428805      -0.49885656 </v>
   <v>      -0.29144136       0.24516155      -0.40018631 </v>
   <v>       0.40031351      -0.38500388       0.48181364 </v>
   <v>       0.41235124      -0.19082762       0.49028320 </v>
   <v>      -0.31425449       0.47575744       0.46734705 </v>
   <v>      -0.32219391       0.45357704      -0.42175976 </v>
   <v>       0.39570235      -0.43359029       0.49738658 </v>
   <v>       0.41391036      -0.39845966       0.49086943 </v>
   <v>       0.39798601      -0.12602803      -0.48140119 </v>
   <v>      -0.32362714       0.48117992       0.42158322 </v>
   <v>       0.41172859      -0.13961263      -0.48644740 </v>
   <v>      -0.31446397       0.20784885       0.48569595 </v>
   <v>      -0.33640540       0.45865983      -0.47987975 </v>
   <v>       0.44370777      -0.20923488       0.38280714 </v>
   <v>      -0.33796446       0.44242463      -0.37753130 </v>
   <v>      -0.32491311       0.22019848      -0.40357930 </v>
   <v>       0.44754855      -0.17383936       0.49365322 </v>
   <v>       0.44533476      -0.34673132       0.39149523 </v>
   <v>       0.45670108      -0.21356249       0.42396348 </v>
   <v>      -0.32276024       0.19308186       0.43953416 </v>
   <v>       0.45932866      -0.25443735       0.37546334 </v>
   <v>       0.41325648      -0.45066695      -0.49040304 </v>
   <v>       0.39962709      -0.47811390      -0.48861576 </v>
   <v>       0.46528439      -0.23847136       0.41943899 </v>
   <v>      -0.33771992       0.20175048      -0.46289288 </v>
   <v>       0.45807126      -0.33003890       0.43385608 </v>
   <v>       0.46359344      -0.19458879       0.48289608 </v>
   <v>       0.46514014      -0.29834269       0.42752751 </v>
   <v>      -0.34169144       0.21541147      -0.36119457 </v>
   <v>       0.44893867      -0.38007034       0.49843399 </v>
   <v>       0.44710970      -0.12168578      -0.48552828 </v>
   <v>      -0.37787980       0.39419407      -0.46339055 </v>
   <v>       0.46512871      -0.34309384       0.49143925 </v>
   <v>       0.47974545      -0.24487912       0.47541815 </v>
   <v>       0.48034434      -0.27692728       0.47886654 </v>
   <v>       0.46477061      -0.13921371      -0.49375794 </v>
   <v>       0.48194684      -0.20016744      -0.46744802 </v>
   <v>      -0.37345444       0.44230710      -0.48442451 </v>
   <v>      -0.37912437       0.22501123      -0.45537337 </v>
   <v>       0.48946342      -0.22481091      -0.47019313 </v>
   <v>       0.43293792      -0.07984714      -0.40898564 </v>
   <v>       0.48420873      -0.31982289      -0.45868967 </v>
   <v>      -0.39157152       0.40750298      -0.47302769 </v>
   <v>       0.44857774      -0.43294091      -0.48544564 </v>
   <v>       0.48941528      -0.18496928      -0.42180823 </v>
   <v>       0.49204942      -0.28638676      -0.46494506 </v>
   <v>       0.46608739      -0.39757575      -0.48926571 </v>
   <v>      -0.37460402       0.18107137      -0.47189348 </v>
   <v>       0.49124352      -0.32824987      -0.41359604 </v>
   <v>       0.46537807      -0.08458862      -0.48156585 </v>
   <v>      -0.37763911       0.48642417       0.49755214 </v>
   <v>      -0.39277894       0.19797331      -0.46484872 </v>
   <v>      -0.49472688      -0.26800903      -0.42559411 </v>
   <v>       0.49217093      -0.12556372      -0.49148055 </v>
   <v>       0.45462410      -0.06648197      -0.44192779 </v>
   <v>      -0.39127750       0.45908811      -0.49719176 </v>
   <v>       0.43269998      -0.49112804      -0.41513831 </v>
   <v>       0.49338431      -0.38368758      -0.48395925 </v>
   <v>      -0.42273508       0.35869759      -0.36421004 </v>
   <v>      -0.37859224       0.13268833      -0.48783337 </v>
   <v>       0.46697377      -0.45162006      -0.48203723 </v>
   <v>      -0.39216456       0.14652938      -0.48531613 </v>
   <v>      -0.42676229       0.38906847      -0.47643050 </v>
   <v>      -0.42274219       0.22015492      -0.36759553 </v>
   <v>       0.45524906      -0.48170531      -0.44595327 </v>
   <v>      -0.43561092       0.34093394      -0.40482037 </v>
   <v>       0.49397136      -0.06541304       0.47835993 </v>
   <v>      -0.49697949      -0.07822368       0.44537795 </v>
   <v>      -0.43791588       0.29805661      -0.35420728 </v>
   <v>      -0.43599674       0.22341468      -0.40984283 </v>
   <v>      -0.44258507       0.35235542      -0.46453980 </v>
   <v>      -0.44394172       0.30755561      -0.39884622 </v>
   <v>       0.47188204      -0.03154638      -0.44429061 </v>
   <v>      -0.42777724       0.18143650      -0.47275850 </v>
   <v>      -0.44293777       0.24817266      -0.40464314 </v>
   <v>      -0.42665906       0.44141895      -0.49818790 </v>
   <v>       0.46433937      -0.01664082      -0.41425036 </v>
   <v>      -0.44382445       0.20232703      -0.46614015 </v>
   <v>      -0.45825989       0.28612658      -0.45415473 </v>
   <v>      -0.44414623       0.40621040      -0.48970626 </v>
   <v>      -0.41201667       0.49829090       0.42742206 </v>
   <v>      -0.45881354       0.25348957      -0.45592638 </v>
   <v>      -0.49343012      -0.41784401       0.45062224 </v>
   <v>      -0.46071544       0.32791850       0.48643980 </v>
   <v>       0.49664466      -0.44081626       0.48060382 </v>
   <v>      -0.46799456       0.29584918       0.49062692 </v>
   <v>      -0.42746858       0.12900562      -0.49062890 </v>
   <v>      -0.48914171      -0.03190774       0.47565891 </v>
   <v>       0.47259153      -0.49923900      -0.44926735 </v>
   <v>      -0.46358117       0.20565558       0.48431496 </v>
   <v>      -0.46820977       0.33511784       0.44016495 </v>
   <v>       0.49997791      -0.01492786      -0.48652179 </v>
   <v>      -0.44495364       0.14682981      -0.48594545 </v>
   <v>      -0.47130934       0.23135235       0.48938653 </v>
   <v>       0.46431066       0.47735815      -0.42202998 </v>
   <v>      -0.41229896       0.08724943       0.43509526 </v>
   <v>      -0.44503549       0.46011602       0.49797097 </v>
   <v>      -0.43394150       0.48952479       0.45985068 </v>
   <v>      -0.47121594       0.18941359       0.44027574 </v>
   <v>      -0.48508570       0.23580296       0.45015850 </v>
   <v>      -0.47153927       0.39225771      -0.49210544 </v>
   <v>      -0.48639939      -0.45731900       0.47690848 </v>
   <v>      -0.49831630      -0.48644367      -0.48896253 </v>
   <v>      -0.44593515       0.09193865      -0.49542172 </v>
   <v>      -0.47223703       0.13343940      -0.49150285 </v>
   <v>      -0.43463662       0.07385417       0.46638629 </v>
   <v>      -0.48094134       0.02230452      -0.49133783 </v>
   <v>      -0.45109538      -0.49274149       0.46315894 </v>
   <v>      -0.49234430       0.03929066      -0.45499501 </v>
   <v>      -0.47400393       0.45012238      -0.46281469 </v>
   <v>      -0.44319652      -0.46980976       0.43447271 </v>
   <v>      -0.48342319       0.42776537      -0.43110925 </v>
   <v>      -0.47529452       0.07279329      -0.45738087 </v>
   <v>      -0.44425608       0.02398765       0.43920096 </v>
   <v>      -0.47946969       0.49526655      -0.49527252 </v>
   <v>      -0.48485334       0.08562697      -0.42577558 </v>
   <v>      -0.45215674       0.03891451       0.46819481 </v>
   <v>      -0.49081247       0.46675960      -0.45928505 </v>
  </varray>
 </structure>
 <varray name="primitive_index" >
  <v type="int" >        1 </v>
  <v type="int" >       95 </v>
  <v type="int" >       94 </v>
  <v type="int" >       21 </v>
  <v type="int" >       93 </v>
  <v type="int" >      180 </v>
  <v type="int" >       91 </v>
  <v type="int" >       69 </v>
  <v type="int" >       92 </v>
  <v type="int" >      181 </v>
  <v type="int" >       20 </v>
  <v type="int" >        6 </v>
  <v type="int" >      100 </v>
  <v type="int" >       19 </v>
  <v type="int" >       23 </v>
  <v type="int" >      182 </v>
  <v type="int" >      101 </v>
  <v type="int" >      146 </v>
  <v type="int" >       99 </v>
  <v type="int" >       70 </v>
  <v type="int" >       22 </v>
  <v type="int" >      183 </v>
  <v type="int" >       48 </v>
  <v type="int" >       96 </v>
  <v type="int" >       98 </v>
  <v type="int" >       97 </v>
  <v type="int" >      132 </v>
  <v type="int" >      107 </v>
  <v type="int" >       39 </v>
  <v type="int" >       25 </v>
  <v type="int" >      131 </v>
  <v type="int" >       40 </v>
  <v type="int" >      102 </v>
  <v type="int" >       28 </v>
  <v type="int" >      106 </v>
  <v type="int" >      108 </v>
  <v type="int" >       24 </v>
  <v type="int" >      133 </v>
  <v type="int" >       27 </v>
  <v type="int" >       30 </v>
  <v type="int" >      105 </v>
  <v type="int" >      111 </v>
  <v type="int" >        2 </v>
  <v type="int" >      130 </v>
  <v type="int" >      109 </v>
  <v type="int" >      128 </v>
  <v type="int" >      110 </v>
  <v type="int" >      129 </v>
  <v type="int" >        3 </v>
  <v type="int" >      104 </v>
  <v type="int" >       29 </v>
  <v type="int" >       88 </v>
  <v type="int" >      179 </v>
  <v type="int" >       83 </v>
  <v type="int" >      216 </v>
  <v type="int" >      202 </v>
  <v type="int" >      103 </v>
  <v type="int" >       26 </v>
  <v type="int" >       67 </v>
  <v type="int" >       41 </v>
  <v type="int" >      178 </v>
  <v type="int" >      203 </v>
  <v type="int" >      112 </v>
  <v type="int" >       62 </v>
  <v type="int" >      165 </v>
  <v type="int" >       31 </v>
  <v type="int" >       18 </v>
  <v type="int" >        5 </v>
  <v type="int" >      113 </v>
  <v type="int" >      115 </v>
  <v type="int" >      177 </v>
  <v type="int" >       32 </v>
  <v type="int" >      204 </v>
  <v type="int" >      176 </v>
  <v type="int" >      114 </v>
  <v type="int" >       10 </v>
  <v type="int" >        4 </v>
  <v type="int" >       84 </v>
  <v type="int" >       66 </v>
  <v type="int" >      205 </v>
  <v type="int" >      194 </v>
  <v type="int" >      157 </v>
  <v type="int" >       77 </v>
  <v type="int" >      215 </v>
  <v type="int" >      158 </v>
  <v type="int" >       90 </v>
  <v type="int" >       55 </v>
  <v type="int" >      201 </v>
  <v type="int" >      164 </v>
  <v type="int" >      214 </v>
  <v type="int" >      166 </v>
  <v type="int" >       81 </v>
  <v type="int" >      200 </v>
  <v type="int" >       59 </v>
  <v type="int" >       12 </v>
  <v type="int" >       35 </v>
  <v type="int" >       60 </v>
  <v type="int" >       16 </v>
  <v type="int" >      118 </v>
  <v type="int" >      167 </v>
  <v type="int" >       38 </v>
  <v type="int" >      117 </v>
  <v type="int" >      213 </v>
  <v type="int" >      175 </v>
  <v type="int" >      122 </v>
  <v type="int" >      123 </v>
  <v type="int" >       33 </v>
  <v type="int" >       89 </v>
  <v type="int" >      119 </v>
  <v type="int" >      206 </v>
  <v type="int" >      212 </v>
  <v type="int" >       79 </v>
  <v type="int" >       68 </v>
  <v type="int" >      168 </v>
  <v type="int" >      116 </v>
  <v type="int" >       78 </v>
  <v type="int" >      196 </v>
  <v type="int" >       82 </v>
  <v type="int" >       80 </v>
  <v type="int" >      127 </v>
  <v type="int" >       37 </v>
  <v type="int" >      197 </v>
  <v type="int" >      169 </v>
  <v type="int" >      199 </v>
  <v type="int" >      195 </v>
  <v type="int" >       15 </v>
  <v type="int" >       61 </v>
  <v type="int" >      124 </v>
  <v type="int" >      120 </v>
  <v type="int" >       47 </v>
  <v type="int" >      163 </v>
  <v type="int" >      198 </v>
  <v type="int" >      160 </v>
  <v type="int" >      121 </v>
  <v type="int" >      159 </v>
  <v type="int" >      140 </v>
  <v type="int" >       44 </v>
  <v type="int" >        9 </v>
  <v type="int" >       50 </v>
  <v type="int" >      162 </v>
  <v type="int" >      141 </v>
  <v type="int" >      126 </v>
  <v type="int" >       58 </v>
  <v type="int" >      161 </v>
  <v type="int" >      125 </v>
  <v type="int" >      136 </v>
  <v type="int" >       57 </v>
  <v type="int" >      147 </v>
  <v type="int" >       46 </v>
  <v type="int" >      135 </v>
  <v type="int" >       56 </v>
  <v type="int" >       34 </v>
  <v type="int" >      148 </v>
  <v type="int" >      145 </v>
  <v type="int" >       53 </v>
  <v type="int" >       36 </v>
  <v type="int" >       64 </v>
  <v type="int" >       42 </v>
  <v type="int" >      152 </v>
  <v type="int" >      137 </v>
  <v type="int" >      142 </v>
  <v type="int" >       65 </v>
  <v type="int" >      153 </v>
  <v type="int" >      173 </v>
  <v type="int" >      184 </v>
  <v type="int" >       73 </v>
  <v type="int" >       63 </v>
  <v type="int" >      170 </v>
  <v type="int" >      174 </v>
  <v type="int" >      172 </v>
  <v type="int" >      149 </v>
  <v type="int" >      134 </v>
  <v type="int" >       11 </v>
  <v type="int" >      144 </v>
  <v type="int" >       51 </v>
  <v type="int" >      207 </v>
  <v type="int" >      171 </v>
  <v type="int" >      143 </v>
  <v type="int" >       75 </v>
  <v type="int" >      210 </v>
  <v type="int" >       76 </v>
  <v type="int" >      211 </v>
  <v type="int" >      189 </v>
  <v type="int" >       17 </v>
  <v type="int" >      138 </v>
  <v type="int" >       13 </v>
  <v type="int" >      154 </v>
  <v type="int" >      208 </v>
  <v type="int" >       85 </v>
  <v type="int" >      150 </v>
  <v type="int" >      139 </v>
  <v type="int" >      209 </v>
  <v type="int" >       54 </v>
  <v type="int" >       72 </v>
  <v type="int" >      193 </v>
  <v type="int" >      192 </v>
  <v type="int" >       86 </v>
  <v type="int" >       87 </v>
  <v type="int" >       45 </v>
  <v type="int" >       14 </v>
  <v type="int" >      155 </v>
  <v type="int" >      188 </v>
  <v type="int" >       43 </v>
  <v type="int" >      187 </v>
  <v type="int" >      185 </v>
  <v type="int" >      191 </v>
  <v type="int" >        7 </v>
  <v type="int" >      156 </v>
  <v type="int" >       74 </v>
  <v type="int" >       52 </v>
  <v type="int" >      151 </v>
  <v type="int" >       71 </v>
  <v type="int" >      190 </v>
  <v type="int" >       49 </v>
  <v type="int" >      186 </v>
  <v type="int" >        8 </v>
 </varray>
 <kpoints>
  <generation param="listgenerated">
   <i name="divisions" type="int">      20 </i>
   <v>       0.00000000       0.00000000       0.00000000 </v>
   <v>       0.50000000       0.00000000       0.00000000 </v>
   <v>       0.33333333       0.33333333       0.00000000 </v>
   <v>       0.00000000       0.00000000       0.00000000 </v>
  </generation>
  <varray name="kpointlist" >
   <v>       0.00000000       0.00000000       0.00000000 </v>
   <v>       0.02631579       0.00000000       0.00000000 </v>
   <v>       0.05263158       0.00000000       0.00000000 </v>
   <v>       0.07894737       0.00000000       0.00000000 </v>
   <v>       0.10526316       0.00000000       0.00000000 </v>
   <v>       0.13157895       0.00000000       0.00000000 </v>
   <v>       0.15789474       0.00000000       0.00000000 </v>
   <v>       0.18421053       0.00000000       0.00000000 </v>
   <v>       0.21052632       0.00000000       0.00000000 </v>
   <v>       0.23684211       0.00000000       0.00000000 </v>
   <v>       0.26315789       0.00000000       0.00000000 </v>
   <v>       0.28947368       0.00000000       0.00000000 </v>
   <v>       0.31578947       0.00000000       0.00000000 </v>
   <v>       0.34210526       0.00000000       0.00000000 </v>
   <v>       0.36842105       0.00000000       0.00000000 </v>
   <v>       0.39473684       0.00000000       0.00000000 </v>
   <v>       0.42105263       0.00000000       0.00000000 </v>
   <v>       0.44736842       0.00000000       0.00000000 </v>
   <v>       0.47368421       0.00000000       0.00000000 </v>
   <v>       0.50000000       0.00000000       0.00000000 </v>
   <v>       0.50000000       0.00000000       0.00000000 </v>
   <v>       0.49122807       0.01754386       0.00000000 </v>
   <v>       0.48245614       0.03508772       0.00000000 </v>
   <v>       0.47368421       0.05263158       0.00000000 </v>
   <v>       0.46491228       0.07017544       0.00000000 </v>
   <v>       0.45614035       0.08771930       0.00000000 </v>
   <v>       0.44736842       0.10526316       0.00000000 </v>
   <v>       0.43859649       0.12280702       0.00000000 </v>
   <v>       0.42982456       0.14035088       0.00000000 </v>
   <v>       0.42105263       0.15789474       0.00000000 </v>
   <v>       0.41228070       0.17543860       0.00000000 </v>
   <v>       0.40350877       0.19298246       0.00000000 </v>
   <v>       0.39473684       0.21052632       0.00000000 </v>
   <v>       0.38596491       0.22807018       0.00000000 </v>
   <v>       0.37719298       0.24561404       0.00000000 </v>
   <v>       0.36842105       0.26315789       0.00000000 </v>
   <v>       0.35964912       0.28070175       0.00000000 </v>
   <v>       0.35087719       0.29824561       0.00000000 </v>
   <v>       0.34210526       0.31578947       0.00000000 </v>
   <v>       0.33333333       0.33333333       0.00000000 </v>
   <v>       0.33333333       0.33333333       0.00000000 </v>
   <v>       0.31578947       0.31578947       0.00000000 </v>
   <v>       0.29824561       0.29824561       0.00000000 </v>
   <v>       0.28070175       0.28070175       0.00000000 </v>
   <v>       0.26315789       0.26315789       0.00000000 </v>
   <v>       0.24561404       0.24561404       0.00000000 </v>
   <v>       0.22807018       0.22807018       0.00000000 </v>
   <v>       0.21052632       0.21052632       0.00000000 </v>
   <v>       0.19298246       0.19298246       0.00000000 </v>
   <v>       0.17543860       0.17543860       0.00000000 </v>
   <v>       0.15789474       0.15789474       0.00000000 </v>
   <v>       0.14035088       0.14035088       0.00000000 </v>
   <v>       0.12280702       0.12280702       0.00000000 </v>
   <v>       0.10526316       0.10526316       0.00000000 </v>
   <v>       0.08771930       0.08771930       0.00000000 </v>
   <v>       0.07017544       0.07017544       0.00000000 </v>
   <v>       0.05263158       0.05263158       0.00000000 </v>
   <v>       0.03508772       0.03508772       0.00000000 </v>
   <v>       0.01754386       0.01754386       0.00000000 </v>
   <v>       0.00000000       0.00000000       0.00000000 </v>
  </varray>
  <varray name="weights" >
   <v>       0.01666667 </v>
   <v>       0.01666667 </v>
   <v>       0.01666667 </v>
   <v>       0.01666667 </v>
   <v>       0.01666667 </v>
   <v>       0.01666667 </v>
   <v>       0.01666667 </v>
   <v>       0.01666667 </v>
   <v>       0.01666667 </v>
   <v>       0.01666667 </v>
   <v>       0.01666667 </v>
   <v>       0.01666667 </v>
   <v>       0.01666667 </v>
   <v>       0.01666667 </v>
   <v>       0.01666667 </v>
   <v>       0.01666667 </v>
   <v>       0.01666667 </v>
   <v>       0.01666667 </v>
   <v>       0.01666667 </v>
   <v>       0.01666667 </v>
   <v>       0.01666667 </v>
   <v>       0.01666667 </v>
   <v>       0.01666667 </v>
   <v>       0.01666667 </v>
   <v>       0.01666667 </v>
   <v>       0.01666667 </v>
   <v>       0.01666667 </v>
   <v>       0.01666667 </v>
   <v>       0.01666667 </v>
   <v>       0.01666667 </v>
   <v>       0.01666667 </v>
   <v>       0.01666667 </v>
   <v>       0.01666667 </v>
   <v>       0.01666667 </v>
   <v>       0.01666667 </v>
   <v>       0.01666667 </v>
   <v>       0.01666667 </v>
   <v>       0.01666667 </v>
   <v>       0.01666667 </v>
   <v>       0.01666667 </v>
   <v>       0.01666667 </v>
   <v>       0.01666667 </v>
   <v>       0.01666667 </v>
   <v>       0.01666667 </v>
   <v>       0.01666667 </v>
   <v>       0.01666667 </v>
   <v>       0.01666667 </v>
   <v>       0.01666667 </v>
   <v>       0.01666667 </v>
   <v>       0.01666667 </v>
   <v>       0.01666667 </v>
   <v>       0.01666667 </v>
   <v>       0.01666667 </v>
   <v>       0.01666667 </v>
   <v>       0.01666667 </v>
   <v>       0.01666667 </v>
   <v>       0.01666667 </v>
   <v>       0.01666667 </v>
   <v>       0.01666667 </v>
   <v>       0.01666667 </v>
  </varray>
 </kpoints>
 <parameters>
  <separator name="general" >
   <i type="string" name="SYSTEM">Simulation for cell shape cell volume r</i>
   <i type="logical" name="LCOMPAT"> F  </i>
  </separator>
  <separator name="electronic" >
   <i type="string" name="PREC">high</i>
   <i name="ENMAX">    500.00000000</i>
   <i name="ENAUG">    644.87300000</i>
   <i name="EDIFF">      0.00001000</i>
   <i type="int" name="IALGO">    38</i>
   <i type="int" name="IWAVPR">    10</i>
   <i type="int" name="NBANDS">   448</i>
   <i name="NELECT">    666.00000000</i>
   <i type="int" name="TURBO">     0</i>
   <i type="int" name="IRESTART">     0</i>
   <i type="int" name="NREBOOT">     0</i>
   <i type="int" name="NMIN">     0</i>
   <i name="EREF">      0.00000000</i>
   <separator name="electronic smearing" >
    <i type="int" name="ISMEAR">     0</i>
    <i name="SIGMA">      0.01000000</i>
    <i name="KSPACING">      0.50000000</i>
    <i type="logical" name="KGAMMA"> T  </i>
   </separator>
   <separator name="electronic projectors" >
    <i type="logical" name="LREAL"> T  </i>
    <v name="ROPT">     -0.00040000     -0.00040000     -0.00040000</v>
    <i type="int" name="LMAXPAW">  -100</i>
    <i type="int" name="LMAXMIX">     2</i>
    <i type="logical" name="NLSPLINE"> F  </i>
   </separator>
   <separator name="electronic startup" >
    <i type="int" name="ISTART">     1</i>
    <i type="int" name="ICHARG">    11</i>
    <i type="int" name="INIWAV">     1</i>
   </separator>
   <separator name="electronic spin" >
    <i type="int" name="ISPIN">     1</i>
    <i type="logical" name="LNONCOLLINEAR"> F  </i>
    <v name="MAGMOM">      1.00000000      1.00000000      1.00000000      1.00000000      1.00000000      1.00000000      1.00000000      1.00000000      1.00000000      1.00000000      1.00000000      1.00000000      1.00000000      1.00000000      1.00000000      1.00000000      1.00000000      1.00000000      1.00000000      1.00000000
      1.00000000      1.00000000      1.00000000      1.00000000      1.00000000      1.00000000      1.00000000      1.00000000      1.00000000      1.00000000      1.00000000      1.00000000      1.00000000      1.00000000      1.00000000      1.00000000      1.00000000      1.00000000      1.00000000      1.00000000
      1.00000000      1.00000000      1.00000000      1.00000000      1.00000000      1.00000000      1.00000000      1.00000000      1.00000000      1.00000000      1.00000000      1.00000000      1.00000000      1.00000000      1.00000000      1.00000000      1.00000000      1.00000000      1.00000000      1.00000000
      1.00000000      1.00000000      1.00000000      1.00000000      1.00000000      1.00000000      1.00000000      1.00000000      1.00000000      1.00000000      1.00000000      1.00000000      1.00000000      1.00000000      1.00000000      1.00000000      1.00000000      1.00000000      1.00000000      1.00000000
      1.00000000      1.00000000      1.00000000      1.00000000      1.00000000      1.00000000      1.00000000      1.00000000      1.00000000      1.00000000      1.00000000      1.00000000      1.00000000      1.00000000      1.00000000      1.00000000      1.00000000      1.00000000      1.00000000      1.00000000
      1.00000000      1.00000000      1.00000000      1.00000000      1.00000000      1.00000000      1.00000000      1.00000000      1.00000000      1.00000000      1.00000000      1.00000000      1.00000000      1.00000000      1.00000000      1.00000000      1.00000000      1.00000000      1.00000000      1.00000000
      1.00000000      1.00000000      1.00000000      1.00000000      1.00000000      1.00000000      1.00000000      1.00000000      1.00000000      1.00000000      1.00000000      1.00000000      1.00000000      1.00000000      1.00000000      1.00000000      1.00000000      1.00000000      1.00000000      1.00000000
      1.00000000      1.00000000      1.00000000      1.00000000      1.00000000      1.00000000      1.00000000      1.00000000      1.00000000      1.00000000      1.00000000      1.00000000      1.00000000      1.00000000      1.00000000      1.00000000      1.00000000      1.00000000      1.00000000      1.00000000
      1.00000000      1.00000000      1.00000000      1.00000000      1.00000000      1.00000000      1.00000000      1.00000000      1.00000000      1.00000000      1.00000000      1.00000000      1.00000000      1.00000000      1.00000000      1.00000000      1.00000000      1.00000000      1.00000000      1.00000000
      1.00000000      1.00000000      1.00000000      1.00000000      1.00000000      1.00000000      1.00000000      1.00000000      1.00000000      1.00000000      1.00000000      1.00000000      1.00000000      1.00000000      1.00000000      1.00000000      1.00000000      1.00000000      1.00000000      1.00000000
      1.00000000      1.00000000      1.00000000      1.00000000      1.00000000      1.00000000      1.00000000      1.00000000      1.00000000      1.00000000      1.00000000      1.00000000      1.00000000      1.00000000      1.00000000      1.00000000</v>
    <i name="NUPDOWN">     -1.00000000</i>
    <i type="logical" name="LSORBIT"> F  </i>
    <v name="SAXIS">      0.00000000      0.00000000      1.00000000</v>
    <i type="logical" name="LSPIRAL"> F  </i>
    <v name="QSPIRAL">      0.00000000      0.00000000      0.00000000</v>
    <i type="logical" name="LZEROZ"> F  </i>
   </separator>
   <separator name="electronic exchange-correlation" >
    <i type="logical" name="LASPH"> F  </i>
    <i type="logical" name="LMETAGGA"> F  </i>
   </separator>
   <separator name="electronic convergence" >
    <i type="int" name="NELM">   200</i>
    <i type="int" name="NELMDL">     0</i>
    <i type="int" name="NELMIN">     2</i>
    <i name="ENINI">    500.00000000</i>
    <separator name="electronic convergence detail" >
     <i type="logical" name="LDIAG"> T  </i>
     <i type="logical" name="LSUBROT"> F  </i>
     <i name="WEIMIN">      0.00000000</i>
     <i name="EBREAK">      0.00000001</i>
     <i name="DEPER">      0.30000000</i>
     <i type="int" name="NRMM">     4</i>
     <i name="TIME">      0.40000000</i>
    </separator>
   </separator>
   <separator name="electronic mixer" >
    <i name="AMIX">      0.40000000</i>
    <i name="BMIX">      1.00000000</i>
    <i name="AMIN">      0.10000000</i>
    <i name="AMIX_MAG">      1.60000000</i>
    <i name="BMIX_MAG">      1.00000000</i>
    <separator name="electronic mixer details" >
     <i type="int" name="IMIX">     4</i>
     <i type="logical" name="MIXFIRST"> F  </i>
     <i type="int" name="MAXMIX">   -45</i>
     <i name="WC">    100.00000000</i>
     <i type="int" name="INIMIX">     1</i>
     <i type="int" name="MIXPRE">     1</i>
     <i type="int" name="MREMOVE">     5</i>
    </separator>
   </separator>
   <separator name="electronic dipolcorrection" >
    <i type="logical" name="LDIPOL"> F  </i>
    <i type="logical" name="LMONO"> F  </i>
    <i type="int" name="IDIPOL">     0</i>
    <i name="EPSILON">      1.00000000</i>
    <v name="DIPOL">   -100.00000000   -100.00000000   -100.00000000</v>
    <i name="EFIELD">      0.00000000</i>
   </separator>
  </separator>
  <separator name="grids" >
   <i type="int" name="NGX">   336</i>
   <i type="int" name="NGY">   336</i>
   <i type="int" name="NGZ">   150</i>
   <i type="int" name="NGXF">   512</i>
   <i type="int" name="NGYF">   512</i>
   <i type="int" name="NGZF">   224</i>
   <i type="logical" name="ADDGRID"> F  </i>
  </separator>
  <separator name="ionic" >
   <i type="int" name="NSW">     0</i>
   <i type="int" name="IBRION">    -1</i>
   <i type="int" name="MDALGO">     0</i>
   <i type="int" name="ISIF">     2</i>
   <i name="PSTRESS">      0.00000000</i>
   <i name="EDIFFG">     -0.01000000</i>
   <i type="int" name="NFREE">     0</i>
   <i name="POTIM">      0.30000000</i>
   <i name="SMASS">     -3.00000000</i>
   <i name="SCALEE">      1.00000000</i>
  </separator>
  <separator name="ionic md" >
   <i name="TEBEG">      0.00010000</i>
   <i name="TEEND">      0.00010000</i>
   <i type="int" name="NBLOCK">     1</i>
   <i type="int" name="KBLOCK">     1</i>
   <i type="int" name="NPACO">   256</i>
   <i name="APACO">     16.00000000</i>
  </separator>
  <separator name="symmetry" >
   <i type="int" name="ISYM">     2</i>
   <i name="SYMPREC">      0.00001000</i>
  </separator>
  <separator name="dos" >
   <i type="int" name="LORBIT">     0</i>
   <v name="RWIGS">     -1.00000000     -1.00000000     -1.00000000</v>
   <i type="int" name="NEDOS">   301</i>
   <i name="EMIN">     10.00000000</i>
   <i name="EMAX">    -10.00000000</i>
   <i name="EFERMI">      0.00000000</i>
  </separator>
  <separator name="writing" >
   <i type="int" name="NWRITE">     0</i>
   <i type="logical" name="LWAVE"> F  </i>
   <i type="logical" name="LDOWNSAMPLE"> F  </i>
   <i type="logical" name="LCHARG"> F  </i>
   <i type="logical" name="LPARD"> F  </i>
   <i type="logical" name="LVTOT"> F  </i>
   <i type="logical" name="LVHAR"> F  </i>
   <i type="logical" name="LELF"> F  </i>
   <i type="logical" name="LOPTICS"> F  </i>
   <v name="STM">      0.00000000      0.00000000      0.00000000      0.00000000      0.00000000      0.00000000      0.00000000</v>
  </separator>
  <separator name="performance" >
   <i type="int" name="NPAR">    16</i>
   <i type="int" name="NSIM">     4</i>
   <i type="int" name="NBLK">    -1</i>
   <i type="logical" name="LPLANE"> T  </i>
   <i type="logical" name="LSCALAPACK"> T  </i>
   <i type="logical" name="LSCAAWARE"> F  </i>
   <i type="logical" name="LSCALU"> F  </i>
   <i type="logical" name="LASYNC"> F  </i>
   <i type="logical" name="LORBITALREAL"> F  </i>
  </separator>
  <separator name="miscellaneous" >
   <i type="int" name="IDIOT">     3</i>
   <i type="int" name="ISPECIAL">     0</i>
   <i type="logical" name="LMUSIC"> F  </i>
   <v name="POMASS">     14.00100000      1.00000000     12.01100000</v>
   <v name="DARWINR">      0.00000000      0.00000000      0.00000000</v>
   <v name="DARWINV">      1.00000000      1.00000000      1.00000000</v>
   <i type="logical" name="LCORR"> T  </i>
  </separator>
  <i type="logical" name="GGA_COMPAT"> T  </i>
  <i type="logical" name="LBERRY"> F  </i>
  <i type="int" name="ICORELEVEL">     0</i>
  <i type="logical" name="LDAU"> F  </i>
  <i type="int" name="I_CONSTRAINED_M">     0</i>
  <separator name="electronic exchange-correlation" >
   <i type="string" name="GGA">PE</i>
   <i type="int" name="VOSKOWN">     0</i>
   <i type="logical" name="LHFCALC"> F  </i>
   <i type="string" name="PRECFOCK"></i>
   <i type="logical" name="LSYMGRAD"> F  </i>
   <i type="logical" name="LHFONE"> F  </i>
   <i type="logical" name="LRHFCALC"> F  </i>
   <i type="logical" name="LTHOMAS"> F  </i>
   <i type="logical" name="LMODELHF"> F  </i>
   <i name="ENCUT4O">     -1.00000000</i>
   <i type="int" name="EXXOEP">     0</i>
   <i type="int" name="FOURORBIT">     0</i>
   <i name="AEXX">      0.00000000</i>
   <i name="HFALPHA">      0.00000000</i>
   <i name="MCALPHA">      0.00000000</i>
   <i name="ALDAX">      1.00000000</i>
   <i name="AGGAX">      1.00000000</i>
   <i name="ALDAC">      1.00000000</i>
   <i name="AGGAC">      1.00000000</i>
   <i type="int" name="NKREDX">     1</i>
   <i type="int" name="NKREDY">     1</i>
   <i type="int" name="NKREDZ">     1</i>
   <i type="logical" name="SHIFTRED"> F  </i>
   <i type="logical" name="ODDONLY"> F  </i>
   <i type="logical" name="EVENONLY"> F  </i>
   <i type="int" name="LMAXFOCK">     0</i>
   <i type="int" name="NMAXFOCKAE">     0</i>
   <i type="logical" name="LFOCKAEDFT"> F  </i>
   <i name="HFSCREEN">      0.00000000</i>
   <i name="HFSCREENC">      0.00000000</i>
   <i type="int" name="NBANDSGWLOW">     0</i>
  </separator>
  <separator name="vdW DFT" >
   <i type="logical" name="LUSE_VDW"> F  </i>
   <i name="Zab_VDW">     -0.84910000</i>
   <i name="PARAM1">      0.12340000</i>
   <i name="PARAM2">      1.00000000</i>
   <i name="PARAM3">      0.00000000</i>
  </separator>
  <separator name="model GW" >
   <i type="int" name="MODEL_GW">     0</i>
   <i name="MODEL_EPS0">    101.44374017</i>
   <i name="MODEL_ALPHA">      1.00000000</i>
  </separator>
  <separator name="linear response parameters" >
   <i type="logical" name="LEPSILON"> F  </i>
   <i type="logical" name="LRPA"> F  </i>
   <i type="logical" name="LNABLA"> F  </i>
   <i type="logical" name="LVEL"> F  </i>
   <i type="int" name="KINTER">     0</i>
   <i name="CSHIFT">      0.10000000</i>
   <i name="OMEGAMAX">     -1.00000000</i>
   <i name="DEG_THRESHOLD">      0.00200000</i>
   <i name="RTIME">     -0.10000000</i>
   <i name="WPLASMAI">      0.00000000</i>
   <v name="DFIELD">      0.00000000      0.00000000      0.00000000</v>
   <v name="WPLASMA">      0.00000000      0.00000000      0.00000000      0.00000000      0.00000000      0.00000000      0.00000000      0.00000000      0.00000000</v>
  </separator>
  <separator name="orbital magnetization" >
   <i type="logical" name="NUCIND"> F  </i>
   <v name="MAGPOS">      0.00000000      0.00000000      0.00000000</v>
   <i type="logical" name="LNICSALL"> T  </i>
   <i type="logical" name="ORBITALMAG"> F  </i>
   <i type="logical" name="LMAGBLOCH"> F  </i>
   <i type="logical" name="LCHIMAG"> F  </i>
   <i type="logical" name="LGAUGE"> T  </i>
   <i type="int" name="MAGATOM">     0</i>
   <v name="MAGDIPOL">      0.00000000      0.00000000      0.00000000</v>
   <v name="AVECCONST">      0.00000000      0.00000000      0.00000000</v>
  </separator>
  <separator name="response functions" >
   <i type="logical" name="LADDER"> F  </i>
   <i type="logical" name="LRPAFORCE"> F  </i>
   <i type="logical" name="LFXC"> F  </i>
   <i type="logical" name="LHARTREE"> T  </i>
   <i type="int" name="IBSE">     0</i>
   <v type="int" name="KPOINT">    -1     0     0     0</v>
   <i type="logical" name="LTCTE"> F  </i>
   <i type="logical" name="LTETE"> F  </i>
   <i type="logical" name="LTRIPLET"> F  </i>
   <i type="logical" name="LFXCEPS"> F  </i>
   <i type="logical" name="LFXHEG"> F  </i>
   <i type="int" name="NATURALO">     2</i>
   <i type="logical" name="L2ORDER"> F  </i>
   <i type="logical" name="LMP2LT"> F  </i>
   <i type="logical" name="LUSEW"> F  </i>
   <i name="ENCUTGW">     -2.00000000</i>
   <i name="ENCUTGWSOFT">     -2.00000000</i>
   <i name="ENCUTLF">     -1.00000000</i>
   <i type="int" name="LMAXMP2">    -1</i>
   <i name="SCISSOR">      0.00000000</i>
   <i type="int" name="NOMEGA">     0</i>
   <i type="int" name="NOMEGAR">     0</i>
   <i type="int" name="NBANDSGW">    -1</i>
   <i type="int" name="NBANDSO">    -1</i>
   <i type="int" name="NBANDSV">    -1</i>
   <i type="int" name="NELM">   200</i>
   <i type="int" name="NELMHF">     1</i>
   <i type="int" name="DIM">     3</i>
   <i type="int" name="ANTIRES">     0</i>
   <i name="OMEGAMAX">    -30.00000000</i>
   <i name="OMEGAMIN">    -30.00000000</i>
   <i name="OMEGATL">   -200.00000000</i>
   <i type="int" name="OMEGAGRID">   140</i>
   <i name="CSHIFT">     -0.10000000</i>
   <i type="logical" name="SELFENERGY"> F  </i>
   <i type="logical" name="LSPECTRAL"> F  </i>
   <i type="logical" name="LSPECTRALGW"> F  </i>
   <i type="logical" name="LSINGLES"> F  </i>
   <i type="logical" name="LFERMIGW"> F  </i>
   <i type="logical" name="ODDONLYGW"> F  </i>
   <i type="logical" name="EVENONLYGW"> F  </i>
   <i type="int" name="NKREDLFX">     1</i>
   <i type="int" name="NKREDLFY">     1</i>
   <i type="int" name="NKREDLFZ">     1</i>
   <i type="int" name="MAXMEM">  2800</i>
   <i type="int" name="TELESCOPE">     0</i>
   <i type="int" name="TAUPAR">     1</i>
   <i type="int" name="OMEGAPAR">    -1</i>
   <i name="LAMBDA">      1.00000000</i>
  </separator>
  <separator name="External order field" >
   <i name="OFIELD_KAPPA">      0.00000000</i>
   <v name="OFIELD_K">      0.00000000      0.00000000      0.00000000</v>
   <i name="OFIELD_Q6_NEAR">      0.00000000</i>
   <i name="OFIELD_Q6_FAR">      0.00000000</i>
   <i name="OFIELD_A">      0.00000000</i>
  </separator>
  <separator name="solvation model" >
   <i type="logical" name="LSOL"> F  </i>
  </separator>
 </parameters>
 <atominfo>
  <atoms>     216 </atoms>
  <types>       3 </types>
  <array name="atoms" >
   <dimension dim="1">ion</dimension>
   <field type="string">element</field>
   <field type="int">atomtype</field>
   <set>
    <rc><c>N </c><c>   1</c></rc>
    <rc><c>N </c><c>   1</c></rc>
    <rc><c>N </c><c>   1</c></rc>
    <rc><c>N </c><c>   1</c></rc>
    <rc><c>N </c><c>   1</c></rc>
    <rc><c>N </c><c>   1</c></rc>
    <rc><c>N </c><c>   1</c></rc>
    <rc><c>N </c><c>   1</c></rc>
    <rc><c>N </c><c>   1</c></rc>
    <rc><c>N </c><c>   1</c></rc>
    <rc><c>N </c><c>   1</c></rc>
    <rc><c>N </c><c>   1</c></rc>
    <rc><c>N </c><c>   1</c></rc>
    <rc><c>N </c><c>   1</c></rc>
    <rc><c>N </c><c>   1</c></rc>
    <rc><c>N </c><c>   1</c></rc>
    <rc><c>N </c><c>   1</c></rc>
    <rc><c>N </c><c>   1</c></rc>
    <rc><c>H </c><c>   2</c></rc>
    <rc><c>H </c><c>   2</c></rc>
    <rc><c>H </c><c>   2</c></rc>
    <rc><c>H </c><c>   2</c></rc>
    <rc><c>H </c><c>   2</c></rc>
    <rc><c>H </c><c>   2</c></rc>
    <rc><c>H </c><c>   2</c></rc>
    <rc><c>H </c><c>   2</c></rc>
    <rc><c>H </c><c>   2</c></rc>
    <rc><c>H </c><c>   2</c></rc>
    <rc><c>H </c><c>   2</c></rc>
    <rc><c>H </c><c>   2</c></rc>
    <rc><c>H </c><c>   2</c></rc>
    <rc><c>H </c><c>   2</c></rc>
    <rc><c>H </c><c>   2</c></rc>
    <rc><c>H </c><c>   2</c></rc>
    <rc><c>H </c><c>   2</c></rc>
    <rc><c>H </c><c>   2</c></rc>
    <rc><c>H </c><c>   2</c></rc>
    <rc><c>H </c><c>   2</c></rc>
    <rc><c>H </c><c>   2</c></rc>
    <rc><c>H </c><c>   2</c></rc>
    <rc><c>H </c><c>   2</c></rc>
    <rc><c>H </c><c>   2</c></rc>
    <rc><c>H </c><c>   2</c></rc>
    <rc><c>H </c><c>   2</c></rc>
    <rc><c>H </c><c>   2</c></rc>
    <rc><c>H </c><c>   2</c></rc>
    <rc><c>H </c><c>   2</c></rc>
    <rc><c>H </c><c>   2</c></rc>
    <rc><c>H </c><c>   2</c></rc>
    <rc><c>H </c><c>   2</c></rc>
    <rc><c>H </c><c>   2</c></rc>
    <rc><c>H </c><c>   2</c></rc>
    <rc><c>H </c><c>   2</c></rc>
    <rc><c>H </c><c>   2</c></rc>
    <rc><c>H </c><c>   2</c></rc>
    <rc><c>H </c><c>   2</c></rc>
    <rc><c>H </c><c>   2</c></rc>
    <rc><c>H </c><c>   2</c></rc>
    <rc><c>H </c><c>   2</c></rc>
    <rc><c>H </c><c>   2</c></rc>
    <rc><c>H </c><c>   2</c></rc>
    <rc><c>H </c><c>   2</c></rc>
    <rc><c>H </c><c>   2</c></rc>
    <rc><c>H </c><c>   2</c></rc>
    <rc><c>H </c><c>   2</c></rc>
    <rc><c>H </c><c>   2</c></rc>
    <rc><c>H </c><c>   2</c></rc>
    <rc><c>H </c><c>   2</c></rc>
    <rc><c>H </c><c>   2</c></rc>
    <rc><c>H </c><c>   2</c></rc>
    <rc><c>H </c><c>   2</c></rc>
    <rc><c>H </c><c>   2</c></rc>
    <rc><c>H </c><c>   2</c></rc>
    <rc><c>H </c><c>   2</c></rc>
    <rc><c>H </c><c>   2</c></rc>
    <rc><c>H </c><c>   2</c></rc>
    <rc><c>H </c><c>   2</c></rc>
    <rc><c>H </c><c>   2</c></rc>
    <rc><c>H </c><c>   2</c></rc>
    <rc><c>H </c><c>   2</c></rc>
    <rc><c>H </c><c>   2</c></rc>
    <rc><c>H </c><c>   2</c></rc>
    <rc><c>H </c><c>   2</c></rc>
    <rc><c>H </c><c>   2</c></rc>
    <rc><c>H </c><c>   2</c></rc>
    <rc><c>H </c><c>   2</c></rc>
    <rc><c>H </c><c>   2</c></rc>
    <rc><c>H </c><c>   2</c></rc>
    <rc><c>H </c><c>   2</c></rc>
    <rc><c>H </c><c>   2</c></rc>
    <rc><c>C </c><c>   3</c></rc>
    <rc><c>C </c><c>   3</c></rc>
    <rc><c>C </c><c>   3</c></rc>
    <rc><c>C </c><c>   3</c></rc>
    <rc><c>C </c><c>   3</c></rc>
    <rc><c>C </c><c>   3</c></rc>
    <rc><c>C </c><c>   3</c></rc>
    <rc><c>C </c><c>   3</c></rc>
    <rc><c>C </c><c>   3</c></rc>
    <rc><c>C </c><c>   3</c></rc>
    <rc><c>C </c><c>   3</c></rc>
    <rc><c>C </c><c>   3</c></rc>
    <rc><c>C </c><c>   3</c></rc>
    <rc><c>C </c><c>   3</c></rc>
    <rc><c>C </c><c>   3</c></rc>
    <rc><c>C </c><c>   3</c></rc>
    <rc><c>C </c><c>   3</c></rc>
    <rc><c>C </c><c>   3</c></rc>
    <rc><c>C </c><c>   3</c></rc>
    <rc><c>C </c><c>   3</c></rc>
    <rc><c>C </c><c>   3</c></rc>
    <rc><c>C </c><c>   3</c></rc>
    <rc><c>C </c><c>   3</c></rc>
    <rc><c>C </c><c>   3</c></rc>
    <rc><c>C </c><c>   3</c></rc>
    <rc><c>C </c><c>   3</c></rc>
    <rc><c>C </c><c>   3</c></rc>
    <rc><c>C </c><c>   3</c></rc>
    <rc><c>C </c><c>   3</c></rc>
    <rc><c>C </c><c>   3</c></rc>
    <rc><c>C </c><c>   3</c></rc>
    <rc><c>C </c><c>   3</c></rc>
    <rc><c>C </c><c>   3</c></rc>
    <rc><c>C </c><c>   3</c></rc>
    <rc><c>C </c><c>   3</c></rc>
    <rc><c>C </c><c>   3</c></rc>
    <rc><c>C </c><c>   3</c></rc>
    <rc><c>C </c><c>   3</c></rc>
    <rc><c>C </c><c>   3</c></rc>
    <rc><c>C </c><c>   3</c></rc>
    <rc><c>C </c><c>   3</c></rc>
    <rc><c>C </c><c>   3</c></rc>
    <rc><c>C </c><c>   3</c></rc>
    <rc><c>C </c><c>   3</c></rc>
    <rc><c>C </c><c>   3</c></rc>
    <rc><c>C </c><c>   3</c></rc>
    <rc><c>C </c><c>   3</c></rc>
    <rc><c>C </c><c>   3</c></rc>
    <rc><c>C </c><c>   3</c></rc>
    <rc><c>C </c><c>   3</c></rc>
    <rc><c>C </c><c>   3</c></rc>
    <rc><c>C </c><c>   3</c></rc>
    <rc><c>C </c><c>   3</c></rc>
    <rc><c>C </c><c>   3</c></rc>
    <rc><c>C </c><c>   3</c></rc>
    <rc><c>C </c><c>   3</c></rc>
    <rc><c>C </c><c>   3</c></rc>
    <rc><c>C </c><c>   3</c></rc>
    <rc><c>C </c><c>   3</c></rc>
    <rc><c>C </c><c>   3</c></rc>
    <rc><c>C </c><c>   3</c></rc>
    <rc><c>C </c><c>   3</c></rc>
    <rc><c>C </c><c>   3</c></rc>
    <rc><c>C </c><c>   3</c></rc>
    <rc><c>C </c><c>   3</c></rc>
    <rc><c>C </c><c>   3</c></rc>
    <rc><c>C </c><c>   3</c></rc>
    <rc><c>C </c><c>   3</c></rc>
    <rc><c>C </c><c>   3</c></rc>
    <rc><c>C </c><c>   3</c></rc>
    <rc><c>C </c><c>   3</c></rc>
    <rc><c>C </c><c>   3</c></rc>
    <rc><c>C </c><c>   3</c></rc>
    <rc><c>C </c><c>   3</c></rc>
    <rc><c>C </c><c>   3</c></rc>
    <rc><c>C </c><c>   3</c></rc>
    <rc><c>C </c><c>   3</c></rc>
    <rc><c>C </c><c>   3</c></rc>
    <rc><c>C </c><c>   3</c></rc>
    <rc><c>C </c><c>   3</c></rc>
    <rc><c>C </c><c>   3</c></rc>
    <rc><c>C </c><c>   3</c></rc>
    <rc><c>C </c><c>   3</c></rc>
    <rc><c>C </c><c>   3</c></rc>
    <rc><c>C </c><c>   3</c></rc>
    <rc><c>C </c><c>   3</c></rc>
    <rc><c>C </c><c>   3</c></rc>
    <rc><c>C </c><c>   3</c></rc>
    <rc><c>C </c><c>   3</c></rc>
    <rc><c>C </c><c>   3</c></rc>
    <rc><c>C </c><c>   3</c></rc>
    <rc><c>C </c><c>   3</c></rc>
    <rc><c>C </c><c>   3</c></rc>
    <rc><c>C </c><c>   3</c></rc>
    <rc><c>C </c><c>   3</c></rc>
    <rc><c>C </c><c>   3</c></rc>
    <rc><c>C </c><c>   3</c></rc>
    <rc><c>C </c><c>   3</c></rc>
    <rc><c>C </c><c>   3</c></rc>
    <rc><c>C </c><c>   3</c></rc>
    <rc><c>C </c><c>   3</c></rc>
    <rc><c>C </c><c>   3</c></rc>
    <rc><c>C </c><c>   3</c></rc>
    <rc><c>C </c><c>   3</c></rc>
    <rc><c>C </c><c>   3</c></rc>
    <rc><c>C </c><c>   3</c></rc>
    <rc><c>C </c><c>   3</c></rc>
    <rc><c>C </c><c>   3</c></rc>
    <rc><c>C </c><c>   3</c></rc>
    <rc><c>C </c><c>   3</c></rc>
    <rc><c>C </c><c>   3</c></rc>
    <rc><c>C </c><c>   3</c></rc>
    <rc><c>C </c><c>   3</c></rc>
    <rc><c>C </c><c>   3</c></rc>
    <rc><c>C </c><c>   3</c></rc>
    <rc><c>C </c><c>   3</c></rc>
    <rc><c>C </c><c>   3</c></rc>
    <rc><c>C </c><c>   3</c></rc>
    <rc><c>C </c><c>   3</c></rc>
    <rc><c>C </c><c>   3</c></rc>
    <rc><c>C </c><c>   3</c></rc>
    <rc><c>C </c><c>   3</c></rc>
    <rc><c>C </c><c>   3</c></rc>
    <rc><c>C </c><c>   3</c></rc>
    <rc><c>C </c><c>   3</c></rc>
    <rc><c>C </c><c>   3</c></rc>
   </set>
  </array>
  <array name="atomtypes" >
   <dimension dim="1">type</dimension>
   <field type="int">atomspertype</field>
   <field type="string">element</field>
   <field>mass</field>
   <field>valence</field>
   <field type="string">pseudopotential</field>
   <set>
    <rc><c>  18</c><c>N </c><c>     14.00100000</c><c>      5.00000000</c><c>  PAW_PBE N 08Apr2002                   </c></rc>
    <rc><c>  72</c><c>H </c><c>      1.00000000</c><c>      1.00000000</c><c>  PAW_PBE H 15Jun2001                   </c></rc>
    <rc><c> 126</c><c>C </c><c>     12.01100000</c><c>      4.00000000</c><c>  PAW_PBE C 08Apr2002                   </c></rc>
   </set>
  </array>
 </atominfo>
 <structure name="initialpos" >
  <crystal>
   <varray name="basis" >
    <v>      45.95065165       0.01400540       0.00000000 </v>
    <v>     -22.96324985      39.73100811       0.00000000 </v>
    <v>       0.00000000       0.00000000      20.00000000 </v>
   </varray>
   <i name="volume">  36519.74646043 </i>
   <varray name="rec_basis" >
    <v>       0.02175864       0.01257580       0.00000000 </v>
    <v>      -0.00000767       0.02516483       0.00000000 </v>
    <v>       0.00000000       0.00000000       0.05000000 </v>
   </varray>
  </crystal>
  <varray name="positions" >
   <v>       0.04626198       0.53989128       0.47704344 </v>
   <v>       0.23983716       0.70988828       0.53947563 </v>
   <v>       0.25230837       0.54617363       0.43432847 </v>
   <v>       0.30355264       0.52575596       0.53927481 </v>
   <v>       0.31153311       0.76010583       0.43372989 </v>
   <v>       0.97430398       0.46440970       0.54091563 </v>
   <v>       0.50765570       0.03929066       0.54500499 </v>
   <v>       0.50918753       0.46675960       0.54071495 </v>
   <v>       0.48946342       0.77518909       0.52980687 </v>
   <v>       0.76720599       0.30578254       0.58954038 </v>
   <v>       0.55706223       0.24817266       0.59535686 </v>
   <v>       0.70955140       0.46070438       0.58307122 </v>
   <v>       0.51085829       0.96809226       0.47565891 </v>
   <v>       0.51360061       0.54268100       0.47690848 </v>
   <v>       0.46514014       0.70165731       0.42752751 </v>
   <v>       0.71766748       0.23256338       0.48740723 </v>
   <v>       0.53200544       0.29584918       0.49062692 </v>
   <v>       0.78018635       0.48028748       0.47577522 </v>
   <v>       0.09264857       0.50727323       0.59026841 </v>
   <v>       0.02960678       0.47585868       0.58236432 </v>
   <v>       0.09286949       0.57878811       0.44989645 </v>
   <v>       0.13933064       0.51956340       0.51937295 </v>
   <v>       0.13965371       0.61388675       0.51497836 </v>
   <v>       0.23162643       0.61234068       0.48663255 </v>
   <v>       0.20070238       0.66958552       0.58843227 </v>
   <v>       0.24498831       0.51015497       0.58524235 </v>
   <v>       0.19863794       0.52399823       0.59601527 </v>
   <v>       0.22172177       0.64985034       0.38873932 </v>
   <v>       0.26692892       0.71072747       0.38211660 </v>
   <v>       0.22298514       0.56473443       0.39654045 </v>
   <v>       0.28337649       0.76884425       0.58406101 </v>
   <v>       0.30125765       0.55054894       0.38129899 </v>
   <v>       0.39798601       0.87397197       0.51859881 </v>
   <v>       0.49217093       0.87443628       0.50851945 </v>
   <v>       0.39877468       0.78209834       0.48120191 </v>
   <v>       0.49338431       0.61631242       0.51604075 </v>
   <v>       0.39962709       0.52188610       0.51138424 </v>
   <v>       0.40031351       0.61499612       0.48181364 </v>
   <v>       0.88122441       0.48543439       0.50454519 </v>
   <v>       0.88074382       0.39102817       0.50150587 </v>
   <v>       0.78886117       0.39234808       0.53387353 </v>
   <v>       0.62140776       0.13268833       0.51216663 </v>
   <v>       0.52776297       0.13343940       0.50849715 </v>
   <v>       0.62087563       0.22501123       0.54462663 </v>
   <v>       0.52846073       0.39225771       0.50789456 </v>
   <v>       0.62236089       0.48642417       0.49755214 </v>
   <v>       0.62212020       0.39419407       0.53660945 </v>
   <v>       0.92771952       0.42525841       0.56747547 </v>
   <v>       0.51514666       0.08562697       0.57422442 </v>
   <v>       0.43293792       0.92015286       0.59101436 </v>
   <v>       0.46433937       0.98335918       0.58574964 </v>
   <v>       0.51657681       0.42776537       0.56889075 </v>
   <v>       0.43269998       0.50887196       0.58486169 </v>
   <v>       0.46431066       0.47735815       0.57797002 </v>
   <v>       0.34353275       0.81537161       0.59336794 </v>
   <v>       0.50527312       0.73199097       0.57440589 </v>
   <v>       0.49124352       0.67175013       0.58640396 </v>
   <v>       0.48941528       0.81503072       0.57819177 </v>
   <v>       0.34432318       0.52765401       0.58747653 </v>
   <v>       0.71909771       0.26074392       0.64411394 </v>
   <v>       0.65830856       0.21541147       0.63880543 </v>
   <v>       0.79550731       0.35431476       0.62499841 </v>
   <v>       0.56208412       0.29805661       0.64579272 </v>
   <v>       0.57726492       0.35869759       0.63578996 </v>
   <v>       0.57725781       0.22015492       0.63240447 </v>
   <v>       0.75542485       0.45813628       0.63575255 </v>
   <v>       0.80062273       0.44249595       0.63034709 </v>
   <v>       0.66203554       0.44242463       0.62246870 </v>
   <v>       0.99081370       0.52952219       0.43879547 </v>
   <v>       0.92773652       0.49836629       0.43174356 </v>
   <v>       0.55574392       0.02398765       0.43920096 </v>
   <v>       0.58770104       0.08724943       0.43509526 </v>
   <v>       0.50302051       0.92177632       0.44537795 </v>
   <v>       0.55680348       0.53019024       0.43447271 </v>
   <v>       0.58798333       0.49829090       0.42742206 </v>
   <v>       0.50656988       0.58215599       0.45062224 </v>
   <v>       0.35922280       0.78916859       0.39498959 </v>
   <v>       0.44533476       0.65326868       0.39149523 </v>
   <v>       0.44370777       0.79076512       0.38280714 </v>
   <v>       0.45932866       0.74556265       0.37546334 </v>
   <v>       0.36223380       0.56666667       0.38640178 </v>
   <v>       0.67723976       0.19308186       0.43953416 </v>
   <v>       0.82342647       0.33536594       0.43099017 </v>
   <v>       0.77734714       0.27511963       0.44335489 </v>
   <v>       0.53179023       0.33511784       0.44016495 </v>
   <v>       0.52878406       0.18941359       0.44027574 </v>
   <v>       0.51491430       0.23580296       0.45015850 </v>
   <v>       0.81854495       0.47784172       0.42660833 </v>
   <v>       0.67637286       0.48117992       0.42158322 </v>
   <v>       0.73665912       0.49521903       0.43047870 </v>
   <v>       0.09829868       0.54596841       0.52059372 </v>
   <v>       0.07972146       0.51635277       0.55794305 </v>
   <v>       0.04486961       0.49887974       0.55411249 </v>
   <v>       0.02881402       0.51130590       0.51268940 </v>
   <v>       0.07966632       0.55630899       0.48117349 </v>
   <v>       0.18777341       0.61732292       0.49999876 </v>
   <v>       0.20456162       0.59893537       0.49540863 </v>
   <v>       0.18774770       0.56393871       0.50438664 </v>
   <v>       0.15305973       0.54697223       0.51593583 </v>
   <v>       0.13536054       0.56465022       0.51793559 </v>
   <v>       0.15312873       0.59997270       0.51179029 </v>
   <v>       0.21517208       0.67771435       0.54192364 </v>
   <v>       0.25944915       0.53256423       0.48719806 </v>
   <v>       0.23912063       0.52220198       0.54462962 </v>
   <v>       0.21346047       0.52992505       0.55019885 </v>
   <v>       0.20839729       0.54756242       0.49848303 </v>
   <v>       0.20866674       0.65424656       0.49066265 </v>
   <v>       0.22675281       0.66682090       0.43093012 </v>
   <v>       0.25165662       0.70033704       0.42681680 </v>
   <v>       0.25896949       0.72072495       0.48389304 </v>
   <v>       0.22764260       0.55318685       0.44009779 </v>
   <v>       0.29093347       0.75345576       0.48665088 </v>
   <v>       0.30113595       0.77433878       0.54333115 </v>
   <v>       0.31207620       0.54614572       0.42591327 </v>
   <v>       0.29218870       0.53345686       0.48367221 </v>
   <v>       0.44754855       0.82616064       0.49365322 </v>
   <v>       0.41235124       0.80917238       0.49028320 </v>
   <v>       0.39406221       0.82571195       0.50114344 </v>
   <v>       0.41172859       0.86038737       0.51355260 </v>
   <v>       0.44710970       0.87831422       0.51447172 </v>
   <v>       0.46477061       0.86078629       0.50624206 </v>
   <v>       0.39570235       0.56640971       0.49738658 </v>
   <v>       0.41391036       0.60154034       0.49086943 </v>
   <v>       0.44893867       0.61992966       0.49843399 </v>
   <v>       0.46608739       0.60242425       0.51073429 </v>
   <v>       0.44857774       0.56705909       0.51455436 </v>
   <v>       0.41325648       0.54933305       0.50959696 </v>
   <v>       0.83261919       0.38740658       0.51811067 </v>
   <v>       0.81592322       0.40580048       0.52505043 </v>
   <v>       0.83282311       0.44092426       0.51838878 </v>
   <v>       0.86746593       0.45799224       0.50655810 </v>
   <v>       0.88511590       0.44027694       0.50221758 </v>
   <v>       0.86729468       0.40491453       0.50626605 </v>
   <v>       0.57222276       0.18143650       0.52724150 </v>
   <v>       0.60722106       0.19797331       0.53515128 </v>
   <v>       0.62539598       0.18107137       0.52810652 </v>
   <v>       0.60783544       0.14652938       0.51468387 </v>
   <v>       0.57253142       0.12900562       0.50937110 </v>
   <v>       0.55504636       0.14682981       0.51405455 </v>
   <v>       0.62654556       0.44230710       0.51557549 </v>
   <v>       0.60842848       0.40750298       0.52697231 </v>
   <v>       0.57323771       0.38906847       0.52356950 </v>
   <v>       0.55585377       0.40621040       0.51029374 </v>
   <v>       0.57334094       0.44141895       0.50181210 </v>
   <v>       0.60872250       0.45908811       0.50280824 </v>
   <v>       0.94087829       0.44808563       0.53712654 </v>
   <v>       0.46537807       0.91541138       0.51843415 </v>
   <v>       0.45462410       0.93351803       0.55807221 </v>
   <v>       0.47188204       0.96845362       0.55570939 </v>
   <v>       0.49997791       0.98507214       0.51347821 </v>
   <v>       0.52470548       0.07279329       0.54261913 </v>
   <v>       0.46697377       0.54837994       0.51796277 </v>
   <v>       0.45524906       0.51829469       0.55404673 </v>
   <v>       0.47259153       0.50076100       0.55073265 </v>
   <v>       0.50168370       0.51355633       0.51103747 </v>
   <v>       0.52599607       0.45012238       0.53718531 </v>
   <v>       0.33452185       0.80012434       0.54806283 </v>
   <v>       0.35704100       0.80479505       0.49626908 </v>
   <v>       0.48194684       0.79983256       0.53255198 </v>
   <v>       0.48034434       0.72307272       0.47886654 </v>
   <v>       0.49204942       0.71361324       0.53505494 </v>
   <v>       0.48420873       0.68017711       0.54131033 </v>
   <v>       0.46512871       0.65690616       0.49143925 </v>
   <v>       0.33575661       0.53347490       0.54092571 </v>
   <v>       0.79171119       0.33750761       0.58292921 </v>
   <v>       0.72865615       0.25213089       0.54243157 </v>
   <v>       0.70855864       0.24516155       0.59981369 </v>
   <v>       0.67508689       0.22019848       0.59642070 </v>
   <v>       0.66228008       0.20175048       0.53710712 </v>
   <v>       0.56400326       0.22341468       0.59015717 </v>
   <v>       0.54174011       0.28612658       0.54584527 </v>
   <v>       0.55605828       0.30755561       0.60115378 </v>
   <v>       0.56438908       0.34093394       0.59517963 </v>
   <v>       0.55741493       0.35235542       0.53546020 </v>
   <v>       0.67780609       0.45357704       0.57824024 </v>
   <v>       0.76185823       0.47340491       0.53224828 </v>
   <v>       0.77005178       0.46190761       0.59049866 </v>
   <v>       0.79494194       0.45327861       0.58704636 </v>
   <v>       0.81212538       0.45722135       0.52667610 </v>
   <v>       0.99169674       0.49335766       0.50633043 </v>
   <v>       0.97557978       0.50623120       0.46628425 </v>
   <v>       0.94071307       0.48888741       0.46288711 </v>
   <v>       0.92218458       0.45891126       0.49920697 </v>
   <v>       0.49397136       0.93458696       0.47835993 </v>
   <v>       0.51905866       0.02230452       0.50866217 </v>
   <v>       0.54784326       0.03891451       0.46819481 </v>
   <v>       0.56536338       0.07385417       0.46638629 </v>
   <v>       0.55406485       0.09193865       0.50457828 </v>
   <v>       0.49664466       0.55918374       0.48060382 </v>
   <v>       0.52053031       0.49526655       0.50472748 </v>
   <v>       0.54890462       0.50725851       0.46315894 </v>
   <v>       0.56605850       0.48952479       0.45985068 </v>
   <v>       0.55496451       0.46011602       0.49797097 </v>
   <v>       0.34319665       0.78489793       0.43865599 </v>
   <v>       0.46359344       0.80541121       0.48289608 </v>
   <v>       0.45670108       0.78643751       0.42396348 </v>
   <v>       0.46528439       0.76152864       0.41943899 </v>
   <v>       0.47974545       0.75512088       0.47541815 </v>
   <v>       0.45807126       0.66996110       0.43385608 </v>
   <v>       0.35875913       0.55011535       0.48883827 </v>
   <v>       0.34565107       0.55502582       0.42921259 </v>
   <v>       0.81188600       0.35043796       0.52541104 </v>
   <v>       0.80786564       0.32703759       0.47594425 </v>
   <v>       0.78235049       0.29359634       0.48241868 </v>
   <v>       0.76114797       0.28424655       0.53850214 </v>
   <v>       0.68553603       0.20784885       0.48569595 </v>
   <v>       0.55617555       0.20232703       0.53385985 </v>
   <v>       0.53641883       0.20565558       0.48431496 </v>
   <v>       0.52869066       0.23135235       0.48938653 </v>
   <v>       0.54118646       0.25348957       0.54407362 </v>
   <v>       0.53928456       0.32791850       0.48643980 </v>
   <v>       0.66359460       0.45865983       0.52012025 </v>
   <v>       0.68574551       0.47575744       0.46734705 </v>
   <v>       0.71917939       0.48358129       0.47187855 </v>
   <v>       0.72978826       0.47390339       0.52936781 </v>
   <v>       0.80482529       0.47278098       0.47386693 </v>
  </varray>
 </structure>
 <calculation>
  <scstep>
   <time name="dav"> 1759.54 1775.36</time>
   <time name="total"> 1760.07 1775.91</time>
   <energy>
    <i name="alphaZ">     57.46225053 </i>
    <i name="ewald"> 105223.67133904 </i>
    <i name="hartreedc">-124854.57630054 </i>
    <i name="XCdc">   2286.61186016 </i>
    <i name="pawpsdc">  61901.46719735 </i>
    <i name="pawaedc"> -62014.44912362 </i>
    <i name="eentropy">     -0.00000000 </i>
    <i name="bandstr">  -8344.63323255 </i>
    <i name="atom">  24201.35137224 </i>
    <i name="e_fr_energy">  -1543.09463739 </i>
    <i name="e_wo_entrp">  -1543.09463739 </i>
    <i name="e_0_energy">  -1543.09463739 </i>
   </energy>
  </scstep>
  <scstep>
   <time name="dav"> 1921.08 1938.07</time>
   <time name="total"> 1921.10 1938.09</time>
   <energy>
    <i name="e_fr_energy">  -1543.42438232 </i>
    <i name="e_wo_entrp">  -1543.42438232 </i>
    <i name="e_0_energy">  -1543.42438232 </i>
   </energy>
  </scstep>
  <scstep>
   <time name="dav"> 2178.05 2197.18</time>
   <time name="total"> 2178.07 2197.20</time>
   <energy>
    <i name="e_fr_energy">  -1543.43343524 </i>
    <i name="e_wo_entrp">  -1543.43343524 </i>
    <i name="e_0_energy">  -1543.43343524 </i>
   </energy>
  </scstep>
  <scstep>
   <time name="dav"> 1919.36 1936.16</time>
   <time name="total"> 1919.38 1936.18</time>
   <energy>
    <i name="e_fr_energy">  -1543.43357232 </i>
    <i name="e_wo_entrp">  -1543.43357232 </i>
    <i name="e_0_energy">  -1543.43357232 </i>
   </energy>
  </scstep>
  <scstep>
   <time name="dav"> 1697.58 1712.43</time>
   <time name="total"> 1697.59 1712.45</time>
   <energy>
    <i name="alphaZ">     57.46225053 </i>
    <i name="ewald"> 105223.67133904 </i>
    <i name="hartreedc">-124854.57630054 </i>
    <i name="XCdc">   2286.61186016 </i>
    <i name="pawpsdc">  61901.46719735 </i>
    <i name="pawaedc"> -62014.44912362 </i>
    <i name="eentropy">     -0.00000000 </i>
    <i name="bandstr">  -8344.97217408 </i>
    <i name="atom">  24201.35137224 </i>
    <i name="e_fr_energy">  -1543.43357891 </i>
    <i name="e_wo_entrp">  -1543.43357891 </i>
    <i name="e_0_energy">  -1543.43357891 </i>
   </energy>
  </scstep>
  <structure>
   <crystal>
    <varray name="basis" >
     <v>      45.95065165       0.01400540       0.00000000 </v>
     <v>     -22.96324985      39.73100811       0.00000000 </v>
     <v>       0.00000000       0.00000000      20.00000000 </v>
    </varray>
    <i name="volume">  36519.74646043 </i>
    <varray name="rec_basis" >
     <v>       0.02175864       0.01257580       0.00000000 </v>
     <v>      -0.00000767       0.02516483       0.00000000 </v>
     <v>       0.00000000       0.00000000       0.05000000 </v>
    </varray>
   </crystal>
   <varray name="positions" >
    <v>       0.04626198       0.53989128       0.47704344 </v>
    <v>       0.23983716       0.70988828       0.53947563 </v>
    <v>       0.25230837       0.54617363       0.43432847 </v>
    <v>       0.30355264       0.52575596       0.53927481 </v>
    <v>       0.31153311       0.76010583       0.43372989 </v>
    <v>       0.97430398       0.46440970       0.54091563 </v>
    <v>       0.50765570       0.03929066       0.54500499 </v>
    <v>       0.50918753       0.46675960       0.54071495 </v>
    <v>       0.48946342       0.77518909       0.52980687 </v>
    <v>       0.76720599       0.30578254       0.58954038 </v>
    <v>       0.55706223       0.24817266       0.59535686 </v>
    <v>       0.70955140       0.46070438       0.58307122 </v>
    <v>       0.51085829       0.96809226       0.47565891 </v>
    <v>       0.51360061       0.54268100       0.47690848 </v>
    <v>       0.46514014       0.70165731       0.42752751 </v>
    <v>       0.71766748       0.23256338       0.48740723 </v>
    <v>       0.53200544       0.29584918       0.49062692 </v>
    <v>       0.78018635       0.48028748       0.47577522 </v>
    <v>       0.09264857       0.50727323       0.59026841 </v>
    <v>       0.02960678       0.47585868       0.58236432 </v>
    <v>       0.09286949       0.57878811       0.44989645 </v>
    <v>       0.13933064       0.51956340       0.51937295 </v>
    <v>       0.13965371       0.61388675       0.51497836 </v>
    <v>       0.23162643       0.61234068       0.48663255 </v>
    <v>       0.20070238       0.66958552       0.58843227 </v>
    <v>       0.24498831       0.51015497       0.58524235 </v>
    <v>       0.19863794       0.52399823       0.59601527 </v>
    <v>       0.22172177       0.64985034       0.38873932 </v>
    <v>       0.26692892       0.71072747       0.38211660 </v>
    <v>       0.22298514       0.56473443       0.39654045 </v>
    <v>       0.28337649       0.76884425       0.58406101 </v>
    <v>       0.30125765       0.55054894       0.38129899 </v>
    <v>       0.39798601       0.87397197       0.51859881 </v>
    <v>       0.49217093       0.87443628       0.50851945 </v>
    <v>       0.39877468       0.78209834       0.48120191 </v>
    <v>       0.49338431       0.61631242       0.51604075 </v>
    <v>       0.39962709       0.52188610       0.51138424 </v>
    <v>       0.40031351       0.61499612       0.48181364 </v>
    <v>       0.88122441       0.48543439       0.50454519 </v>
    <v>       0.88074382       0.39102817       0.50150587 </v>
    <v>       0.78886117       0.39234808       0.53387353 </v>
    <v>       0.62140776       0.13268833       0.51216663 </v>
    <v>       0.52776297       0.13343940       0.50849715 </v>
    <v>       0.62087563       0.22501123       0.54462663 </v>
    <v>       0.52846073       0.39225771       0.50789456 </v>
    <v>       0.62236089       0.48642417       0.49755214 </v>
    <v>       0.62212020       0.39419407       0.53660945 </v>
    <v>       0.92771952       0.42525841       0.56747547 </v>
    <v>       0.51514666       0.08562697       0.57422442 </v>
    <v>       0.43293792       0.92015286       0.59101436 </v>
    <v>       0.46433937       0.98335918       0.58574964 </v>
    <v>       0.51657681       0.42776537       0.56889075 </v>
    <v>       0.43269998       0.50887196       0.58486169 </v>
    <v>       0.46431066       0.47735815       0.57797002 </v>
    <v>       0.34353275       0.81537161       0.59336794 </v>
    <v>       0.50527312       0.73199097       0.57440589 </v>
    <v>       0.49124352       0.67175013       0.58640396 </v>
    <v>       0.48941528       0.81503072       0.57819177 </v>
    <v>       0.34432318       0.52765401       0.58747653 </v>
    <v>       0.71909771       0.26074392       0.64411394 </v>
    <v>       0.65830856       0.21541147       0.63880543 </v>
    <v>       0.79550731       0.35431476       0.62499841 </v>
    <v>       0.56208412       0.29805661       0.64579272 </v>
    <v>       0.57726492       0.35869759       0.63578996 </v>
    <v>       0.57725781       0.22015492       0.63240447 </v>
    <v>       0.75542485       0.45813628       0.63575255 </v>
    <v>       0.80062273       0.44249595       0.63034709 </v>
    <v>       0.66203554       0.44242463       0.62246870 </v>
    <v>       0.99081370       0.52952219       0.43879547 </v>
    <v>       0.92773652       0.49836629       0.43174356 </v>
    <v>       0.55574392       0.02398765       0.43920096 </v>
    <v>       0.58770104       0.08724943       0.43509526 </v>
    <v>       0.50302051       0.92177632       0.44537795 </v>
    <v>       0.55680348       0.53019024       0.43447271 </v>
    <v>       0.58798333       0.49829090       0.42742206 </v>
    <v>       0.50656988       0.58215599       0.45062224 </v>
    <v>       0.35922280       0.78916859       0.39498959 </v>
    <v>       0.44533476       0.65326868       0.39149523 </v>
    <v>       0.44370777       0.79076512       0.38280714 </v>
    <v>       0.45932866       0.74556265       0.37546334 </v>
    <v>       0.36223380       0.56666667       0.38640178 </v>
    <v>       0.67723976       0.19308186       0.43953416 </v>
    <v>       0.82342647       0.33536594       0.43099017 </v>
    <v>       0.77734714       0.27511963       0.44335489 </v>
    <v>       0.53179023       0.33511784       0.44016495 </v>
    <v>       0.52878406       0.18941359       0.44027574 </v>
    <v>       0.51491430       0.23580296       0.45015850 </v>
    <v>       0.81854495       0.47784172       0.42660833 </v>
    <v>       0.67637286       0.48117992       0.42158322 </v>
    <v>       0.73665912       0.49521903       0.43047870 </v>
    <v>       0.09829868       0.54596841       0.52059372 </v>
    <v>       0.07972146       0.51635277       0.55794305 </v>
    <v>       0.04486961       0.49887974       0.55411249 </v>
    <v>       0.02881402       0.51130590       0.51268940 </v>
    <v>       0.07966632       0.55630899       0.48117349 </v>
    <v>       0.18777341       0.61732292       0.49999876 </v>
    <v>       0.20456162       0.59893537       0.49540863 </v>
    <v>       0.18774770       0.56393871       0.50438664 </v>
    <v>       0.15305973       0.54697223       0.51593583 </v>
    <v>       0.13536054       0.56465022       0.51793559 </v>
    <v>       0.15312873       0.59997270       0.51179029 </v>
    <v>       0.21517208       0.67771435       0.54192364 </v>
    <v>       0.25944915       0.53256423       0.48719806 </v>
    <v>       0.23912063       0.52220198       0.54462962 </v>
    <v>       0.21346047       0.52992505       0.55019885 </v>
    <v>       0.20839729       0.54756242       0.49848303 </v>
    <v>       0.20866674       0.65424656       0.49066265 </v>
    <v>       0.22675281       0.66682090       0.43093012 </v>
    <v>       0.25165662       0.70033704       0.42681680 </v>
    <v>       0.25896949       0.72072495       0.48389304 </v>
    <v>       0.22764260       0.55318685       0.44009779 </v>
    <v>       0.29093347       0.75345576       0.48665088 </v>
    <v>       0.30113595       0.77433878       0.54333115 </v>
    <v>       0.31207620       0.54614572       0.42591327 </v>
    <v>       0.29218870       0.53345686       0.48367221 </v>
    <v>       0.44754855       0.82616064       0.49365322 </v>
    <v>       0.41235124       0.80917238       0.49028320 </v>
    <v>       0.39406221       0.82571195       0.50114344 </v>
    <v>       0.41172859       0.86038737       0.51355260 </v>
    <v>       0.44710970       0.87831422       0.51447172 </v>
    <v>       0.46477061       0.86078629       0.50624206 </v>
    <v>       0.39570235       0.56640971       0.49738658 </v>
    <v>       0.41391036       0.60154034       0.49086943 </v>
    <v>       0.44893867       0.61992966       0.49843399 </v>
    <v>       0.46608739       0.60242425       0.51073429 </v>
    <v>       0.44857774       0.56705909       0.51455436 </v>
    <v>       0.41325648       0.54933305       0.50959696 </v>
    <v>       0.83261919       0.38740658       0.51811067 </v>
    <v>       0.81592322       0.40580048       0.52505043 </v>
    <v>       0.83282311       0.44092426       0.51838878 </v>
    <v>       0.86746593       0.45799224       0.50655810 </v>
    <v>       0.88511590       0.44027694       0.50221758 </v>
    <v>       0.86729468       0.40491453       0.50626605 </v>
    <v>       0.57222276       0.18143650       0.52724150 </v>
    <v>       0.60722106       0.19797331       0.53515128 </v>
    <v>       0.62539598       0.18107137       0.52810652 </v>
    <v>       0.60783544       0.14652938       0.51468387 </v>
    <v>       0.57253142       0.12900562       0.50937110 </v>
    <v>       0.55504636       0.14682981       0.51405455 </v>
    <v>       0.62654556       0.44230710       0.51557549 </v>
    <v>       0.60842848       0.40750298       0.52697231 </v>
    <v>       0.57323771       0.38906847       0.52356950 </v>
    <v>       0.55585377       0.40621040       0.51029374 </v>
    <v>       0.57334094       0.44141895       0.50181210 </v>
    <v>       0.60872250       0.45908811       0.50280824 </v>
    <v>       0.94087829       0.44808563       0.53712654 </v>
    <v>       0.46537807       0.91541138       0.51843415 </v>
    <v>       0.45462410       0.93351803       0.55807221 </v>
    <v>       0.47188204       0.96845362       0.55570939 </v>
    <v>       0.49997791       0.98507214       0.51347821 </v>
    <v>       0.52470548       0.07279329       0.54261913 </v>
    <v>       0.46697377       0.54837994       0.51796277 </v>
    <v>       0.45524906       0.51829469       0.55404673 </v>
    <v>       0.47259153       0.50076100       0.55073265 </v>
    <v>       0.50168370       0.51355633       0.51103747 </v>
[...]
       <r>    -8.2808    87.3892   525.8779 </r>
       <r>    -8.1907    25.0927   528.2606 </r>
       <r>    -8.1006    44.3907   534.0000 </r>
       <r>    -8.0105     0.0000   534.0000 </r>
       <r>    -7.9204     0.0000   534.0000 </r>
       <r>    -7.8303     0.0000   534.0000 </r>
       <r>    -7.7402     0.0134   534.0012 </r>
       <r>    -7.6502    59.9868   539.4054 </r>
       <r>    -7.5601     0.0000   540.0000 </r>
       <r>    -7.4700    16.8566   541.5186 </r>
       <r>    -7.3799    57.7904   547.2087 </r>
       <r>    -7.2898    43.4083   551.9134 </r>
       <r>    -7.1997    21.6147   554.4633 </r>
       <r>    -7.1096   150.4538   569.5596 </r>
       <r>    -7.0195     0.0000   570.0000 </r>
       <r>    -6.9294     0.0000   570.0000 </r>
       <r>    -6.8393   151.5073   583.6492 </r>
       <r>    -6.7493    11.0685   588.2036 </r>
       <r>    -6.6592    75.2651   596.2209 </r>
       <r>    -6.5691    13.8534   598.0000 </r>
       <r>    -6.4790     1.2593   598.1134 </r>
       <r>    -6.3889    75.7934   605.4462 </r>
       <r>    -6.2988     0.0000   606.0000 </r>
       <r>    -6.2087    48.5665   610.3753 </r>
       <r>    -6.1186     9.4969   612.0000 </r>
       <r>    -6.0285    42.2827   615.8092 </r>
       <r>    -5.9385   127.1840   627.4827 </r>
       <r>    -5.8484     0.0000   630.0000 </r>
       <r>    -5.7583     0.0000   630.0000 </r>
       <r>    -5.6682    86.0036   637.7480 </r>
       <r>    -5.5781   155.9562   652.0587 </r>
       <r>    -5.4880    33.9235   656.0000 </r>
       <r>    -5.3979    80.8912   663.2874 </r>
       <r>    -5.3078    11.3088   666.0000 </r>
       <r>    -5.2177     0.0000   666.0000 </r>
       <r>    -5.1277     0.0000   666.0000 </r>
       <r>    -5.0376     0.0000   666.0000 </r>
       <r>    -4.9475     0.0000   666.0000 </r>
       <r>    -4.8574     0.0000   666.0000 </r>
       <r>    -4.7673     0.0000   666.0000 </r>
       <r>    -4.6772     0.0000   666.0000 </r>
       <r>    -4.5871     0.0000   666.0000 </r>
       <r>    -4.4970     0.0000   666.0000 </r>
       <r>    -4.4069     0.0000   666.0000 </r>
       <r>    -4.3168     0.0000   666.0000 </r>
       <r>    -4.2268     0.0000   666.0000 </r>
       <r>    -4.1367     0.0000   666.0000 </r>
       <r>    -4.0466     0.0000   666.0000 </r>
       <r>    -3.9565     0.0000   666.0000 </r>
       <r>    -3.8664     0.0000   666.0000 </r>
       <r>    -3.7763     0.0000   666.0000 </r>
       <r>    -3.6862     0.0000   666.0000 </r>
       <r>    -3.5961     0.0000   666.0000 </r>
       <r>    -3.5060     0.0000   666.0000 </r>
       <r>    -3.4160     0.0000   666.0000 </r>
       <r>    -3.3259     0.0000   666.0000 </r>
       <r>    -3.2358     0.0000   666.0000 </r>
       <r>    -3.1457     0.0000   666.0000 </r>
       <r>    -3.0556     0.0000   666.0000 </r>
       <r>    -2.9655     0.0000   666.0000 </r>
       <r>    -2.8754     0.0000   666.0000 </r>
       <r>    -2.7853     0.0000   666.0000 </r>
       <r>    -2.6952     0.0000   666.0000 </r>
       <r>    -2.6052    31.2743   668.8175 </r>
       <r>    -2.5151    22.0020   672.0000 </r>
       <r>    -2.4250    97.6929   680.8011 </r>
       <r>    -2.3349    24.6188   684.0000 </r>
       <r>    -2.2448     0.0000   684.0000 </r>
       <r>    -2.1547     0.0000   684.0000 </r>
       <r>    -2.0646     0.0000   684.0000 </r>
       <r>    -1.9745     0.0000   684.0000 </r>
       <r>    -1.8844     0.7088   684.0639 </r>
       <r>    -1.7943   192.2774   701.3860 </r>
       <r>    -1.7043     0.0000   702.0000 </r>
       <r>    -1.6142    76.3528   708.8786 </r>
       <r>    -1.5241    22.1018   711.9998 </r>
       <r>    -1.4340    13.8971   713.2520 </r>
       <r>    -1.3439    96.7641   723.5527 </r>
       <r>    -1.2538    36.3351   728.3743 </r>
       <r>    -1.1637    54.4866   734.9239 </r>
       <r>    -1.0736    22.1743   738.0000 </r>
       <r>    -0.9835     0.0001   738.0000 </r>
       <r>    -0.8935    66.5985   743.9998 </r>
       <r>    -0.8034     0.0000   744.0000 </r>
       <r>    -0.7133     0.0000   744.0000 </r>
       <r>    -0.6232     0.0000   744.0000 </r>
       <r>    -0.5331     0.0000   744.0000 </r>
       <r>    -0.4430    49.1712   748.4298 </r>
       <r>    -0.3529    74.1763   756.7230 </r>
       <r>    -0.2628    52.5414   763.1738 </r>
       <r>    -0.1727     0.0492   764.0044 </r>
       <r>    -0.0827    89.1755   772.0382 </r>
       <r>     0.0074   115.7148   782.7072 </r>
       <r>     0.0975    89.7879   792.7362 </r>
       <r>     0.1876    58.9072   799.3069 </r>
       <r>     0.2777    44.6072   804.0351 </r>
       <r>     0.3678    69.7902   810.3240 </r>
       <r>     0.4579   136.3295   824.0297 </r>
       <r>     0.5480   178.7856   842.8743 </r>
       <r>     0.6381    97.1110   853.7017 </r>
       <r>     0.7281   187.9326   871.7614 </r>
       <r>     0.8182   205.6138   891.4837 </r>
       <r>     0.9083    30.7244   896.0000 </r>
       <r>     0.9984     0.0000   896.0000 </r>
       <r>     1.0885     0.0000   896.0000 </r>
       <r>     1.1786     0.0000   896.0000 </r>
       <r>     1.2687     0.0000   896.0000 </r>
       <r>     1.3588     0.0000   896.0000 </r>
       <r>     1.4489     0.0000   896.0000 </r>
       <r>     1.5390     0.0000   896.0000 </r>
       <r>     1.6290     0.0000   896.0000 </r>
       <r>     1.7191     0.0000   896.0000 </r>
       <r>     1.8092     0.0000   896.0000 </r>
       <r>     1.8993     0.0000   896.0000 </r>
       <r>     1.9894     0.0000   896.0000 </r>
       <r>     2.0795     0.0000   896.0000 </r>
      </set>
     </set>
    </array>
   </total>
  </dos>
 </calculation>
 <structure name="finalpos" >
  <crystal>
   <varray name="basis" >
    <v>      45.95065165       0.01400540       0.00000000 </v>
    <v>     -22.96324985      39.73100811       0.00000000 </v>
    <v>       0.00000000       0.00000000      20.00000000 </v>
   </varray>
   <i name="volume">  36519.74646043 </i>
   <varray name="rec_basis" >
    <v>       0.02175864       0.01257580       0.00000000 </v>
    <v>      -0.00000767       0.02516483       0.00000000 </v>
    <v>       0.00000000       0.00000000       0.05000000 </v>
   </varray>
  </crystal>
  <varray name="positions" >
   <v>       0.04626198       0.53989128       0.47704344 </v>
   <v>       0.23983716       0.70988828       0.53947563 </v>
   <v>       0.25230837       0.54617363       0.43432847 </v>
   <v>       0.30355264       0.52575596       0.53927481 </v>
   <v>       0.31153311       0.76010583       0.43372989 </v>
   <v>       0.97430398       0.46440970       0.54091563 </v>
   <v>       0.50765570       0.03929066       0.54500499 </v>
   <v>       0.50918753       0.46675960       0.54071495 </v>
   <v>       0.48946342       0.77518909       0.52980687 </v>
   <v>       0.76720599       0.30578254       0.58954038 </v>
   <v>       0.55706223       0.24817266       0.59535686 </v>
   <v>       0.70955140       0.46070438       0.58307122 </v>
   <v>       0.51085829       0.96809226       0.47565891 </v>
   <v>       0.51360061       0.54268100       0.47690848 </v>
   <v>       0.46514014       0.70165731       0.42752751 </v>
   <v>       0.71766748       0.23256338       0.48740723 </v>
   <v>       0.53200544       0.29584918       0.49062692 </v>
   <v>       0.78018635       0.48028748       0.47577522 </v>
   <v>       0.09264857       0.50727323       0.59026841 </v>
   <v>       0.02960678       0.47585868       0.58236432 </v>
   <v>       0.09286949       0.57878811       0.44989645 </v>
   <v>       0.13933064       0.51956340       0.51937295 </v>
   <v>       0.13965371       0.61388675       0.51497836 </v>
   <v>       0.23162643       0.61234068       0.48663255 </v>
   <v>       0.20070238       0.66958552       0.58843227 </v>
   <v>       0.24498831       0.51015497       0.58524235 </v>
   <v>       0.19863794       0.52399823       0.59601527 </v>
   <v>       0.22172177       0.64985034       0.38873932 </v>
   <v>       0.26692892       0.71072747       0.38211660 </v>
   <v>       0.22298514       0.56473443       0.39654045 </v>
   <v>       0.28337649       0.76884425       0.58406101 </v>
   <v>       0.30125765       0.55054894       0.38129899 </v>
   <v>       0.39798601       0.87397197       0.51859881 </v>
   <v>       0.49217093       0.87443628       0.50851945 </v>
   <v>       0.39877468       0.78209834       0.48120191 </v>
   <v>       0.49338431       0.61631242       0.51604075 </v>
   <v>       0.39962709       0.52188610       0.51138424 </v>
   <v>       0.40031351       0.61499612       0.48181364 </v>
   <v>       0.88122441       0.48543439       0.50454519 </v>
   <v>       0.88074382       0.39102817       0.50150587 </v>
   <v>       0.78886117       0.39234808       0.53387353 </v>
   <v>       0.62140776       0.13268833       0.51216663 </v>
   <v>       0.52776297       0.13343940       0.50849715 </v>
   <v>       0.62087563       0.22501123       0.54462663 </v>
   <v>       0.52846073       0.39225771       0.50789456 </v>
   <v>       0.62236089       0.48642417       0.49755214 </v>
   <v>       0.62212020       0.39419407       0.53660945 </v>
   <v>       0.92771952       0.42525841       0.56747547 </v>
   <v>       0.51514666       0.08562697       0.57422442 </v>
   <v>       0.43293792       0.92015286       0.59101436 </v>
   <v>       0.46433937       0.98335918       0.58574964 </v>
   <v>       0.51657681       0.42776537       0.56889075 </v>
   <v>       0.43269998       0.50887196       0.58486169 </v>
   <v>       0.46431066       0.47735815       0.57797002 </v>
   <v>       0.34353275       0.81537161       0.59336794 </v>
   <v>       0.50527312       0.73199097       0.57440589 </v>
   <v>       0.49124352       0.67175013       0.58640396 </v>
   <v>       0.48941528       0.81503072       0.57819177 </v>
   <v>       0.34432318       0.52765401       0.58747653 </v>
   <v>       0.71909771       0.26074392       0.64411394 </v>
   <v>       0.65830856       0.21541147       0.63880543 </v>
   <v>       0.79550731       0.35431476       0.62499841 </v>
   <v>       0.56208412       0.29805661       0.64579272 </v>
   <v>       0.57726492       0.35869759       0.63578996 </v>
   <v>       0.57725781       0.22015492       0.63240447 </v>
   <v>       0.75542485       0.45813628       0.63575255 </v>
   <v>       0.80062273       0.44249595       0.63034709 </v>
   <v>       0.66203554       0.44242463       0.62246870 </v>
   <v>       0.99081370       0.52952219       0.43879547 </v>
   <v>       0.92773652       0.49836629       0.43174356 </v>
   <v>       0.55574392       0.02398765       0.43920096 </v>
   <v>       0.58770104       0.08724943       0.43509526 </v>
   <v>       0.50302051       0.92177632       0.44537795 </v>
   <v>       0.55680348       0.53019024       0.43447271 </v>
   <v>       0.58798333       0.49829090       0.42742206 </v>
   <v>       0.50656988       0.58215599       0.45062224 </v>
   <v>       0.35922280       0.78916859       0.39498959 </v>
   <v>       0.44533476       0.65326868       0.39149523 </v>
   <v>       0.44370777       0.79076512       0.38280714 </v>
   <v>       0.45932866       0.74556265       0.37546334 </v>
   <v>       0.36223380       0.56666667       0.38640178 </v>
   <v>       0.67723976       0.19308186       0.43953416 </v>
   <v>       0.82342647       0.33536594       0.43099017 </v>
   <v>       0.77734714       0.27511963       0.44335489 </v>
   <v>       0.53179023       0.33511784       0.44016495 </v>
   <v>       0.52878406       0.18941359       0.44027574 </v>
   <v>       0.51491430       0.23580296       0.45015850 </v>
   <v>       0.81854495       0.47784172       0.42660833 </v>
   <v>       0.67637286       0.48117992       0.42158322 </v>
   <v>       0.73665912       0.49521903       0.43047870 </v>
   <v>       0.09829868       0.54596841       0.52059372 </v>
   <v>       0.07972146       0.51635277       0.55794305 </v>
   <v>       0.04486961       0.49887974       0.55411249 </v>
   <v>       0.02881402       0.51130590       0.51268940 </v>
   <v>       0.07966632       0.55630899       0.48117349 </v>
   <v>       0.18777341       0.61732292       0.49999876 </v>
   <v>       0.20456162       0.59893537       0.49540863 </v>
   <v>       0.18774770       0.56393871       0.50438664 </v>
   <v>       0.15305973       0.54697223       0.51593583 </v>
   <v>       0.13536054       0.56465022       0.51793559 </v>
   <v>       0.15312873       0.59997270       0.51179029 </v>
   <v>       0.21517208       0.67771435       0.54192364 </v>
   <v>       0.25944915       0.53256423       0.48719806 </v>
   <v>       0.23912063       0.52220198       0.54462962 </v>
   <v>       0.21346047       0.52992505       0.55019885 </v>
   <v>       0.20839729       0.54756242       0.49848303 </v>
   <v>       0.20866674       0.65424656       0.49066265 </v>
   <v>       0.22675281       0.66682090       0.43093012 </v>
   <v>       0.25165662       0.70033704       0.42681680 </v>
   <v>       0.25896949       0.72072495       0.48389304 </v>
   <v>       0.22764260       0.55318685       0.44009779 </v>
   <v>       0.29093347       0.75345576       0.48665088 </v>
   <v>       0.30113595       0.77433878       0.54333115 </v>
   <v>       0.31207620       0.54614572       0.42591327 </v>
   <v>       0.29218870       0.53345686       0.48367221 </v>
   <v>       0.44754855       0.82616064       0.49365322 </v>
   <v>       0.41235124       0.80917238       0.49028320 </v>
   <v>       0.39406221       0.82571195       0.50114344 </v>
   <v>       0.41172859       0.86038737       0.51355260 </v>
   <v>       0.44710970       0.87831422       0.51447172 </v>
   <v>       0.46477061       0.86078629       0.50624206 </v>
   <v>       0.39570235       0.56640971       0.49738658 </v>
   <v>       0.41391036       0.60154034       0.49086943 </v>
   <v>       0.44893867       0.61992966       0.49843399 </v>
   <v>       0.46608739       0.60242425       0.51073429 </v>
   <v>       0.44857774       0.56705909       0.51455436 </v>
   <v>       0.41325648       0.54933305       0.50959696 </v>
   <v>       0.83261919       0.38740658       0.51811067 </v>
   <v>       0.81592322       0.40580048       0.52505043 </v>
   <v>       0.83282311       0.44092426       0.51838878 </v>
   <v>       0.86746593       0.45799224       0.50655810 </v>
   <v>       0.88511590       0.44027694       0.50221758 </v>
   <v>       0.86729468       0.40491453       0.50626605 </v>
   <v>       0.57222276       0.18143650       0.52724150 </v>
   <v>       0.60722106       0.19797331       0.53515128 </v>
   <v>       0.62539598       0.18107137       0.52810652 </v>
   <v>       0.60783544       0.14652938       0.51468387 </v>
   <v>       0.57253142       0.12900562       0.50937110 </v>
   <v>       0.55504636       0.14682981       0.51405455 </v>
   <v>       0.62654556       0.44230710       0.51557549 </v>
   <v>       0.60842848       0.40750298       0.52697231 </v>
   <v>       0.57323771       0.38906847       0.52356950 </v>
   <v>       0.55585377       0.40621040       0.51029374 </v>
   <v>       0.57334094       0.44141895       0.50181210 </v>
   <v>       0.60872250       0.45908811       0.50280824 </v>
   <v>       0.94087829       0.44808563       0.53712654 </v>
   <v>       0.46537807       0.91541138       0.51843415 </v>
   <v>       0.45462410       0.93351803       0.55807221 </v>
   <v>       0.47188204       0.96845362       0.55570939 </v>
   <v>       0.49997791       0.98507214       0.51347821 </v>
   <v>       0.52470548       0.07279329       0.54261913 </v>
   <v>       0.46697377       0.54837994       0.51796277 </v>
   <v>       0.45524906       0.51829469       0.55404673 </v>
   <v>       0.47259153       0.50076100       0.55073265 </v>
   <v>       0.50168370       0.51355633       0.51103747 </v>
   <v>       0.52599607       0.45012238       0.53718531 </v>
   <v>       0.33452185       0.80012434       0.54806283 </v>
   <v>       0.35704100       0.80479505       0.49626908 </v>
   <v>       0.48194684       0.79983256       0.53255198 </v>
   <v>       0.48034434       0.72307272       0.47886654 </v>
   <v>       0.49204942       0.71361324       0.53505494 </v>
   <v>       0.48420873       0.68017711       0.54131033 </v>
   <v>       0.46512871       0.65690616       0.49143925 </v>
   <v>       0.33575661       0.53347490       0.54092571 </v>
   <v>       0.79171119       0.33750761       0.58292921 </v>
   <v>       0.72865615       0.25213089       0.54243157 </v>
   <v>       0.70855864       0.24516155       0.59981369 </v>
   <v>       0.67508689       0.22019848       0.59642070 </v>
   <v>       0.66228008       0.20175048       0.53710712 </v>
   <v>       0.56400326       0.22341468       0.59015717 </v>
   <v>       0.54174011       0.28612658       0.54584527 </v>
   <v>       0.55605828       0.30755561       0.60115378 </v>
   <v>       0.56438908       0.34093394       0.59517963 </v>
   <v>       0.55741493       0.35235542       0.53546020 </v>
   <v>       0.67780609       0.45357704       0.57824024 </v>
   <v>       0.76185823       0.47340491       0.53224828 </v>
   <v>       0.77005178       0.46190761       0.59049866 </v>
   <v>       0.79494194       0.45327861       0.58704636 </v>
   <v>       0.81212538       0.45722135       0.52667610 </v>
   <v>       0.99169674       0.49335766       0.50633043 </v>
   <v>       0.97557978       0.50623120       0.46628425 </v>
   <v>       0.94071307       0.48888741       0.46288711 </v>
   <v>       0.92218458       0.45891126       0.49920697 </v>
   <v>       0.49397136       0.93458696       0.47835993 </v>
   <v>       0.51905866       0.02230452       0.50866217 </v>
   <v>       0.54784326       0.03891451       0.46819481 </v>
   <v>       0.56536338       0.07385417       0.46638629 </v>
   <v>       0.55406485       0.09193865       0.50457828 </v>
   <v>       0.49664466       0.55918374       0.48060382 </v>
   <v>       0.52053031       0.49526655       0.50472748 </v>
   <v>       0.54890462       0.50725851       0.46315894 </v>
   <v>       0.56605850       0.48952479       0.45985068 </v>
   <v>       0.55496451       0.46011602       0.49797097 </v>
   <v>       0.34319665       0.78489793       0.43865599 </v>
   <v>       0.46359344       0.80541121       0.48289608 </v>
   <v>       0.45670108       0.78643751       0.42396348 </v>
   <v>       0.46528439       0.76152864       0.41943899 </v>
   <v>       0.47974545       0.75512088       0.47541815 </v>
   <v>       0.45807126       0.66996110       0.43385608 </v>
   <v>       0.35875913       0.55011535       0.48883827 </v>
   <v>       0.34565107       0.55502582       0.42921259 </v>
   <v>       0.81188600       0.35043796       0.52541104 </v>
   <v>       0.80786564       0.32703759       0.47594425 </v>
   <v>       0.78235049       0.29359634       0.48241868 </v>
   <v>       0.76114797       0.28424655       0.53850214 </v>
   <v>       0.68553603       0.20784885       0.48569595 </v>
   <v>       0.55617555       0.20232703       0.53385985 </v>
   <v>       0.53641883       0.20565558       0.48431496 </v>
   <v>       0.52869066       0.23135235       0.48938653 </v>
   <v>       0.54118646       0.25348957       0.54407362 </v>
   <v>       0.53928456       0.32791850       0.48643980 </v>
   <v>       0.66359460       0.45865983       0.52012025 </v>
   <v>       0.68574551       0.47575744       0.46734705 </v>
   <v>       0.71917939       0.48358129       0.47187855 </v>
   <v>       0.72978826       0.47390339       0.52936781 </v>
   <v>       0.80482529       0.47278098       0.47386693 </v>
  </varray>
 </structure>
</modeling>
