<?xml version="1.0" encoding="ISO-8859-1"?>
<modeling>
 <generator>
  <i name="program" type="string">vasp </i>
  <i name="version" type="string">5.4.4.18Apr17-6-g9f103f2a35  </i>
  <i name="subversion" type="string">(build Jun 07 2020 16:50:00) complex            parallel </i>
  <i name="platform" type="string">LinuxIFC </i>
  <i name="date" type="string">2023 02 15 </i>
  <i name="time" type="string">02:36:07 </i>
 </generator>
 <incar>
  <i type="string" name="SYSTEM">Simulation for cell shape cell volume r</i>
  <i type="int" name="ISTART">     1</i>
  <i type="string" name="PREC">high</i>
  <i type="string" name="ALGO">48</i>
  <i type="int" name="ICHARG">    11</i>
  <i type="int" name="NELM">   200</i>
  <i type="int" name="IBRION">    -1</i>
  <i name="EDIFF">      0.00001000</i>
  <i name="EDIFFG">     -0.01000000</i>
  <i type="int" name="NSW">     0</i>
  <i type="int" name="ISIF">     2</i>
  <i name="ENCUT">    500.00000000</i>
  <i name="POTIM">      0.30000000</i>
  <i type="string" name="LREAL">A</i>
  <i type="int" name="ISMEAR">     0</i>
  <i name="SIGMA">      0.01000000</i>
  <i type="int" name="NWRITE">     0</i>
  <i type="logical" name="LWAVE"> F  </i>
  <i type="logical" name="LCHARG"> F  </i>
  <v type="int" name="KPOINT_BSE">    -1     0     0     0</v>
  <i type="int" name="NELM">   200</i>
  <i type="string" name="GGA">PE</i>
 </incar>
 <structure name="primitive_cell" >
  <crystal>
   <varray name="basis" >
    <v>      34.02076615       0.05506961       0.00000000 </v>
    <v>      -0.10456159      34.00474476       0.00000000 </v>
    <v>       0.00000000       0.00000000      20.00000000 </v>
   </varray>
   <i name="volume">  23137.46455273 </i>
   <varray name="rec_basis" >
    <v>       0.02939367       0.00009038       0.00000000 </v>
    <v>      -0.00004760       0.02940751       0.00000000 </v>
    <v>       0.00000000       0.00000000       0.05000000 </v>
   </varray>
  </crystal>
  <varray name="positions" >
   <v>       0.00112368      -0.46611161       0.47365564 </v>
   <v>       0.02962581      -0.49277472       0.47021829 </v>
   <v>      -0.03068704      -0.47406827      -0.48832804 </v>
   <v>       0.05513551      -0.48548426       0.43932010 </v>
   <v>       0.02676585       0.47076282      -0.49695407 </v>
   <v>      -0.06182635      -0.44357262      -0.48833629 </v>
   <v>      -0.03229799       0.49052237      -0.45054327 </v>
   <v>      -0.02010321      -0.39630099       0.49881934 </v>
   <v>      -0.00416603       0.46320545      -0.45727289 </v>
   <v>      -0.05104842      -0.40401424      -0.49630265 </v>
   <v>      -0.10188195      -0.45331400      -0.48330190 </v>
   <v>       0.05693316       0.43979174       0.49599979 </v>
   <v>      -0.06299111       0.48124039      -0.39870512 </v>
   <v>      -0.11059269      -0.48408917      -0.48203909 </v>
   <v>       0.10651793       0.47987301      -0.49970203 </v>
   <v>      -0.07493954      -0.49208489      -0.37560562 </v>
   <v>      -0.07963058      -0.37436178      -0.49884210 </v>
   <v>       0.09691504       0.44938704       0.49574649 </v>
   <v>      -0.08774736       0.46463559      -0.42023826 </v>
   <v>      -0.04968379       0.46254988      -0.36018650 </v>
   <v>      -0.13085781      -0.42404954      -0.48383144 </v>
   <v>       0.04526447       0.40025257       0.49143644 </v>
   <v>       0.01403877       0.39348467       0.49481568 </v>
   <v>      -0.11921290      -0.38468923      -0.49123038 </v>
   <v>      -0.06774628      -0.33276299       0.49217997 </v>
   <v>      -0.03355933      -0.32193443      -0.47910842 </v>
   <v>       0.12551651       0.41969078       0.49284003 </v>
   <v>      -0.14425338      -0.47519658      -0.37360107 </v>
   <v>      -0.14197468      -0.36225731      -0.49086380 </v>
   <v>      -0.15844414       0.48340856      -0.42200806 </v>
   <v>       0.07327168       0.37040991       0.48463853 </v>
   <v>      -0.12305453      -0.34545393       0.39278315 </v>
   <v>      -0.17355397      -0.43269785      -0.48105897 </v>
   <v>       0.01552363       0.36225302       0.38302577 </v>
   <v>      -0.02339767      -0.28415045      -0.48087897 </v>
   <v>      -0.09010630      -0.30483166       0.45531606 </v>
   <v>      -0.16948297      -0.49011931      -0.39650181 </v>
   <v>      -0.02265116       0.34703188       0.43753285 </v>
   <v>       0.17795633       0.46456818       0.46757301 </v>
   <v>       0.11331578       0.38062382       0.48592264 </v>
   <v>       0.00439580      -0.27629820      -0.45692080 </v>
   <v>       0.16762438       0.43043633       0.49708925 </v>
   <v>      -0.19126905      -0.46374364      -0.44406791 </v>
   <v>      -0.12430266      -0.31502656       0.41078270 </v>
   <v>       0.00151815       0.33640797       0.40570785 </v>
   <v>      -0.19627876      -0.40778307       0.48334509 </v>
   <v>       0.06315412       0.32804874       0.47988718 </v>
   <v>      -0.08026464      -0.26665215       0.45687829 </v>
   <v>      -0.04784006      -0.25543043       0.49021147 </v>
   <v>      -0.18986727       0.49997107      -0.35748879 </v>
   <v>      -0.15251632      -0.31141612       0.43702874 </v>
   <v>      -0.12445767      -0.29470059       0.36816996 </v>
   <v>       0.13475697       0.35707863       0.48123498 </v>
   <v>       0.21576112       0.47462204       0.46720637 </v>
   <v>       0.03019908       0.31217627       0.44536970 </v>
   <v>       0.22327438      -0.49781294       0.44215791 </v>
   <v>      -0.01150525       0.31788018       0.36666587 </v>
   <v>       0.15726054       0.37412937      -0.40392932 </v>
   <v>       0.19625160       0.40762316      -0.46853581 </v>
   <v>      -0.23009958      -0.47032478      -0.44804126 </v>
   <v>      -0.23478667      -0.41416443       0.48152988 </v>
   <v>       0.08884871       0.30381760      -0.48945135 </v>
   <v>       0.02370394      -0.21789905       0.49902326 </v>
   <v>       0.18689474       0.37260135      -0.42534090 </v>
   <v>      -0.25233420      -0.44621730      -0.48541397 </v>
   <v>      -0.04001764      -0.21281692       0.49714307 </v>
   <v>       0.24488818       0.45047669       0.49554902 </v>
   <v>       0.02362207       0.27323533       0.44491304 </v>
   <v>       0.23431378       0.41774811      -0.47127209 </v>
   <v>      -0.25221357      -0.39383078       0.45135019 </v>
   <v>      -0.00157494      -0.19841073      -0.49633912 </v>
   <v>       0.18862629       0.34499334      -0.45392848 </v>
   <v>       0.20877642       0.37086369      -0.38516320 </v>
   <v>       0.28109200      -0.47731127       0.48488374 </v>
   <v>       0.08194145       0.26537797      -0.49091273 </v>
   <v>      -0.10146355      -0.19887764       0.49446670 </v>
   <v>       0.04893568       0.24931591       0.47660798 </v>
   <v>      -0.07204628      -0.18664232       0.49976850 </v>
   <v>      -0.28741834       0.48235386      -0.48416383 </v>
   <v>       0.28730696       0.45904390       0.48838781 </v>
   <v>      -0.29474996      -0.45469140      -0.49210209 </v>
   <v>       0.30101549       0.49770753       0.48087098 </v>
   <v>       0.10276248       0.24674358      -0.46398362 </v>
   <v>       0.00490753      -0.15834382      -0.48416353 </v>
   <v>      -0.30814946      -0.49374183      -0.49256924 </v>
   <v>       0.07420485      -0.15396692       0.48479185 </v>
   <v>      -0.31093186      -0.39340482      -0.49938537 </v>
   <v>      -0.02229864       0.21359590       0.47408852 </v>
   <v>       0.12810395      -0.17277358       0.40836476 </v>
   <v>      -0.32151741      -0.42363133       0.49888518 </v>
   <v>      -0.06605334      -0.14647875      -0.48865037 </v>
   <v>       0.04454714      -0.14122727      -0.47654605 </v>
   <v>       0.04078047       0.20660363       0.47876808 </v>
   <v>       0.31405535       0.42748516       0.48668696 </v>
   <v>       0.30235848       0.39789777       0.49279149 </v>
   <v>      -0.11992640      -0.15853024       0.40020893 </v>
   <v>      -0.02734502      -0.13303971      -0.47975296 </v>
   <v>      -0.15886512      -0.16840045       0.45622261 </v>
   <v>       0.00185737       0.19282319       0.47961613 </v>
   <v>       0.34093159      -0.49519248       0.46844190 </v>
   <v>       0.16360940      -0.16440654       0.47206362 </v>
   <v>       0.32553812      -0.37201659      -0.42523208 </v>
   <v>       0.14052821      -0.15041410       0.44172178 </v>
   <v>       0.34468205      -0.42569834       0.49865788 </v>
   <v>       0.10837740      -0.13408119       0.48504865 </v>
   <v>      -0.34771045       0.49814650       0.49358853 </v>
   <v>      -0.14437222      -0.14484939       0.42754974 </v>
   <v>       0.35733612      -0.45530141       0.45978682 </v>
   <v>       0.33383109      -0.33606953      -0.48831900 </v>
   <v>       0.10225330       0.19058505       0.48224193 </v>
   <v>       0.07211847       0.17977972       0.48438194 </v>
   <v>       0.05099279      -0.11021627      -0.43128292 </v>
   <v>      -0.36130928      -0.43124295       0.48712224 </v>
   <v>      -0.09710013      -0.11581128      -0.48446068 </v>
   <v>       0.34783481      -0.35935586      -0.45843039 </v>
   <v>      -0.02270256      -0.10175308      -0.47102445 </v>
   <v>       0.35407533       0.43411719       0.47501438 </v>
   <v>       0.36414237      -0.39128395       0.49770440 </v>
   <v>       0.36680959       0.47297632       0.46486790 </v>
   <v>      -0.34397986      -0.33619911      -0.45957443 </v>
   <v>      -0.35355323       0.42979762      -0.46852848 </v>
   <v>       0.02913170      -0.10244915      -0.39348709 </v>
   <v>      -0.36393222       0.45793406       0.48780526 </v>
   <v>       0.15474568      -0.12729850       0.41185247 </v>
   <v>      -0.35451113      -0.37573860      -0.40477178 </v>
   <v>      -0.37367681      -0.47052887       0.48319949 </v>
   <v>      -0.16567172      -0.13285201       0.39190464 </v>
   <v>      -0.13037313      -0.11246521       0.47277129 </v>
   <v>       0.34271437       0.38153938      -0.41228876 </v>
   <v>      -0.00575584       0.15283011       0.49065592 </v>
   <v>      -0.33972756       0.37873994      -0.38355678 </v>
   <v>       0.11195893      -0.09876969      -0.47728063 </v>
   <v>       0.33348836       0.34150877      -0.46642261 </v>
   <v>       0.38768283      -0.44853233       0.41340046 </v>
   <v>       0.08360003      -0.08876395      -0.43336395 </v>
   <v>      -0.36794587      -0.35178403      -0.43367623 </v>
   <v>      -0.08968298      -0.08738582      -0.43915824 </v>
   <v>       0.37095842      -0.34532319      -0.42831301 </v>
   <v>      -0.07451094       0.14617065       0.45477772 </v>
   <v>      -0.34400286       0.34099881      -0.44479438 </v>
   <v>       0.39527652      -0.47038345       0.37547201 </v>
   <v>      -0.39222264      -0.40102493       0.47727743 </v>
   <v>       0.06499259       0.13967895       0.49398714 </v>
   <v>      -0.12677787       0.15954990       0.37177372 </v>
   <v>      -0.37330253       0.39550805      -0.46877070 </v>
   <v>      -0.04571096       0.13602722       0.49730797 </v>
   <v>       0.35678751       0.35688418      -0.43849951 </v>
   <v>       0.39798320       0.47809284       0.45586766 </v>
   <v>      -0.39208551       0.44969733       0.43817348 </v>
   <v>      -0.35979509       0.36502658      -0.41954535 </v>
   <v>       0.39900098      -0.38735726       0.45891392 </v>
   <v>       0.38522532       0.40354321       0.47194868 </v>
   <v>      -0.40462519      -0.47639925       0.47323606 </v>
   <v>      -0.39764110       0.47024680       0.39722476 </v>
   <v>       0.11866303       0.14725169       0.38450266 </v>
   <v>       0.02587310       0.12689459       0.49834540 </v>
   <v>       0.15932662       0.15797719       0.43675127 </v>
   <v>       0.19429257      -0.10543884      -0.49243504 </v>
   <v>      -0.39788961      -0.36701538      -0.48250557 </v>
   <v>       0.40870310      -0.41562251       0.41464914 </v>
   <v>      -0.38215438      -0.33099424      -0.39953445 </v>
   <v>      -0.16358771       0.15469111       0.43445233 </v>
   <v>      -0.15028679      -0.07837586       0.46952408 </v>
   <v>      -0.13977239       0.13921041       0.40810470 </v>
   <v>       0.38892640       0.37071580      -0.48434600 </v>
   <v>      -0.10850526       0.12589438       0.45601216 </v>
   <v>       0.39206100      -0.30521789       0.47853795 </v>
   <v>       0.14297395      -0.06834817      -0.48580459 </v>
   <v>      -0.41833981      -0.41001906       0.42900298 </v>
   <v>       0.36915171       0.33636683      -0.40188803 </v>
   <v>       0.14332621       0.13393642       0.41176038 </v>
   <v>      -0.11122069      -0.05486192      -0.44037554 </v>
   <v>      -0.41342957       0.41699230       0.43968727 </v>
   <v>       0.18324422      -0.07540818      -0.49333182 </v>
   <v>       0.41363015       0.41103892       0.42665785 </v>
   <v>      -0.40605715       0.39029979       0.48788744 </v>
   <v>      -0.05293768       0.10751477      -0.45315827 </v>
   <v>      -0.38464541       0.35159841      -0.39282409 </v>
   <v>       0.09567174       0.10898869      -0.49752718 </v>
   <v>      -0.03179350       0.10207390      -0.41305173 </v>
   <v>       0.02029195       0.09572223      -0.49322364 </v>
   <v>      -0.13979154      -0.04861539      -0.49007456 </v>
   <v>       0.42934141      -0.35624055       0.46705421 </v>
   <v>       0.25129828      -0.10394961      -0.43948546 </v>
   <v>       0.42210947      -0.31621236       0.47777395 </v>
   <v>       0.16345019       0.11990841       0.37627680 </v>
   <v>       0.12940168       0.10384401       0.46145234 </v>
   <v>      -0.15331656       0.11429771       0.38170934 </v>
   <v>      -0.43219457      -0.34755135      -0.48493413 </v>
   <v>       0.39482233      -0.24506988       0.42864405 </v>
   <v>      -0.10550954      -0.03287740      -0.40167583 </v>
   <v>       0.09872948      -0.02367140      -0.47871666 </v>
   <v>      -0.11275812       0.09289019       0.49918306 </v>
   <v>       0.13003285      -0.02921675      -0.48526847 </v>
   <v>      -0.08535015       0.08574921      -0.45368353 </v>
   <v>      -0.45103593      -0.38890376       0.42457601 </v>
   <v>      -0.40009417       0.30804518      -0.48743206 </v>
   <v>       0.42318996       0.35115222      -0.48053798 </v>
   <v>       0.08752324       0.08275659      -0.44896482 </v>
   <v>       0.26943592      -0.08353526      -0.46834850 </v>
   <v>       0.44640535       0.38994187       0.42863071 </v>
   <v>       0.20994474      -0.04405188       0.49877538 </v>
   <v>      -0.43664004       0.35925539       0.49384594 </v>
   <v>      -0.45986338      -0.35940432       0.47154881 </v>
   <v>       0.41459293      -0.22856082       0.46138569 </v>
   <v>       0.46854167      -0.36889767       0.46431574 </v>
   <v>       0.47412938      -0.40000255       0.45542768 </v>
   <v>      -0.19523204       0.09789867       0.47605858 </v>
   <v>      -0.47107645      -0.39573163       0.38343460 </v>
   <v>      -0.42978610       0.31945517      -0.49312772 </v>
   <v>       0.45285516       0.36178445       0.47895479 </v>
   <v>      -0.15649696      -0.00889822      -0.49988881 </v>
   <v>       0.25273006      -0.05169199       0.49701307 </v>
   <v>       0.45337907      -0.28970060       0.48767841 </v>
   <v>      -0.34483036       0.19616248      -0.44134980 </v>
   <v>       0.30796322      -0.08983530      -0.46733582 </v>
   <v>       0.14979869       0.07001631       0.46386952 </v>
   <v>       0.36167393      -0.13642465      -0.49920940 </v>
   <v>       0.46844260       0.39568022       0.39004155 </v>
   <v>      -0.21635078      -0.02702602       0.48329210 </v>
   <v>      -0.30578970       0.15127188       0.42077996 </v>
   <v>       0.40853747      -0.19003997       0.46565965 </v>
   <v>       0.15592276       0.00234519      -0.49465455 </v>
   <v>      -0.14355058       0.06193419       0.49428724 </v>
   <v>      -0.09965730       0.01814365      -0.48577841 </v>
   <v>       0.44554223      -0.24721267       0.49544545 </v>
   <v>       0.10935766       0.05052498      -0.44481391 </v>
   <v>      -0.36983102       0.21382836      -0.36996903 </v>
   <v>      -0.48084026       0.40263096       0.47332950 </v>
   <v>       0.19600240      -0.00525384       0.49595957 </v>
   <v>      -0.18351375       0.06833465       0.48202822 </v>
   <v>      -0.47555263       0.37165486       0.48391664 </v>
   <v>      -0.19641462      -0.00199103       0.48732416 </v>
   <v>      -0.13075370       0.02311976      -0.49567177 </v>
   <v>      -0.29096865       0.12242365       0.35179797 </v>
   <v>      -0.37177489       0.19274816      -0.41136807 </v>
   <v>       0.13888975       0.04228480      -0.49202971 </v>
   <v>       0.10313400       0.03033431      -0.40361274 </v>
   <v>       0.49999908      -0.34308133       0.47510356 </v>
   <v>      -0.41854047       0.23984364      -0.45287983 </v>
   <v>       0.49222119      -0.30341699       0.48843370 </v>
   <v>      -0.31079192       0.12305831       0.39506786 </v>
   <v>       0.27605417      -0.02681497       0.46296372 </v>
   <v>      -0.48372605      -0.28293578       0.49777121 </v>
   <v>       0.33157076      -0.06462349       0.49947232 </v>
   <v>       0.38461118      -0.11412289      -0.49671319 </v>
   <v>      -0.46121231       0.29252596      -0.49002530 </v>
   <v>       0.43278004      -0.16853605      -0.49539288 </v>
   <v>       0.49271777       0.34564880       0.48912262 </v>
   <v>      -0.26331478       0.07797908       0.44036740 </v>
   <v>       0.46925180      -0.22611809      -0.46450230 </v>
   <v>      -0.40787135       0.20190068      -0.45199890 </v>
   <v>       0.21670810       0.01884962       0.48854899 </v>
   <v>      -0.35777403       0.14190318       0.49273826 </v>
   <v>      -0.37218166       0.16266689      -0.39159893 </v>
   <v>       0.31506546      -0.03273950       0.46301373 </v>
   <v>      -0.45219906       0.25019222      -0.48335621 </v>
   <v>       0.47514514       0.28586993      -0.49222496 </v>
   <v>      -0.27446696      -0.00615308      -0.47239733 </v>
   <v>      -0.34140597       0.12253025       0.37792357 </v>
   <v>      -0.30122318       0.08874970       0.43976415 </v>
   <v>      -0.21019348       0.03664785       0.47995952 </v>
   <v>       0.46307158      -0.18733402      -0.45830002 </v>
   <v>       0.37408747      -0.07425878      -0.49745243 </v>
   <v>       0.42399864      -0.12582339      -0.49326493 </v>
   <v>      -0.49998424       0.30593157      -0.49707367 </v>
   <v>      -0.25263120       0.04535117       0.47359251 </v>
   <v>      -0.43091390       0.17321170      -0.48584754 </v>
   <v>      -0.38073394       0.11967684       0.49535999 </v>
   <v>      -0.28177145       0.02175381      -0.49645766 </v>
   <v>      -0.47668122       0.22084589       0.48953814 </v>
   <v>      -0.32944181       0.06728390       0.47756538 </v>
   <v>       0.33865650      -0.00474102       0.42078569 </v>
   <v>       0.31966800       0.00713815       0.38138174 </v>
   <v>       0.48883002      -0.16683087      -0.40808300 </v>
   <v>       0.49824552      -0.18825262      -0.37039538 </v>
   <v>       0.36446304      -0.01890679       0.39841964 </v>
   <v>       0.47356784      -0.14233007      -0.38371389 </v>
   <v>      -0.48442765      -0.15494439      -0.43162363 </v>
   <v>       0.49494276       0.22804209       0.46710200 </v>
   <v>       0.40380454      -0.04580088      -0.49336694 </v>
   <v>      -0.41972773       0.13137690      -0.49390093 </v>
   <v>      -0.46596423       0.18328846       0.48766656 </v>
   <v>       0.45333121      -0.09681115      -0.49033733 </v>
   <v>      -0.37071449       0.07985081       0.48818503 </v>
   <v>      -0.31916976       0.03292305      -0.49363196 </v>
   <v>       0.34942601       0.02029227       0.45056535 </v>
   <v>       0.39682917      -0.01458693      -0.49225261 </v>
   <v>       0.48409001      -0.10547394      -0.49164636 </v>
   <v>       0.44356795      -0.05672592      -0.48951757 </v>
   <v>      -0.46341514      -0.08496775      -0.42950567 </v>
   <v>      -0.44924241       0.10252485      -0.49232964 </v>
   <v>      -0.39278203       0.02032594       0.49152384 </v>
   <v>      -0.40041200       0.05139941       0.49401314 </v>
   <v>      -0.46041369      -0.04954164      -0.36508415 </v>
   <v>      -0.47972539      -0.06132761      -0.40418232 </v>
   <v>       0.49404569      -0.07443081      -0.38136449 </v>
   <v>      -0.47959848       0.11178776      -0.48496496 </v>
   <v>      -0.43971650       0.06260336      -0.49735592 </v>
   <v>       0.47400356      -0.02547890      -0.48718110 </v>
   <v>      -0.46264647      -0.00019957      -0.45660690 </v>
   <v>      -0.48989580      -0.02858374      -0.45168525 </v>
   <v>       0.46538900       0.00791285       0.47933492 </v>
   <v>       0.48436560       0.06320681       0.45033473 </v>
   <v>      -0.47074601       0.03223238      -0.49222709 </v>
   <v>       0.49215786       0.03647492       0.47764259 </v>
  </varray>
 </structure>
 <varray name="primitive_index" >
  <v type="int" >        1 </v>
  <v type="int" >      218 </v>
  <v type="int" >      262 </v>
  <v type="int" >       73 </v>
  <v type="int" >      217 </v>
  <v type="int" >      149 </v>
  <v type="int" >      261 </v>
  <v type="int" >       38 </v>
  <v type="int" >       19 </v>
  <v type="int" >      150 </v>
  <v type="int" >      148 </v>
  <v type="int" >      155 </v>
  <v type="int" >      263 </v>
  <v type="int" >       37 </v>
  <v type="int" >       40 </v>
  <v type="int" >      108 </v>
  <v type="int" >      145 </v>
  <v type="int" >      154 </v>
  <v type="int" >      109 </v>
  <v type="int" >      107 </v>
  <v type="int" >      147 </v>
  <v type="int" >      156 </v>
  <v type="int" >       41 </v>
  <v type="int" >      146 </v>
  <v type="int" >      222 </v>
  <v type="int" >       21 </v>
  <v type="int" >      153 </v>
  <v type="int" >      128 </v>
  <v type="int" >       39 </v>
  <v type="int" >      127 </v>
  <v type="int" >      151 </v>
  <v type="int" >       76 </v>
  <v type="int" >      285 </v>
  <v type="int" >       80 </v>
  <v type="int" >      268 </v>
  <v type="int" >      221 </v>
  <v type="int" >      286 </v>
  <v type="int" >       79 </v>
  <v type="int" >        9 </v>
  <v type="int" >      152 </v>
  <v type="int" >      113 </v>
  <v type="int" >      282 </v>
  <v type="int" >      284 </v>
  <v type="int" >      223 </v>
  <v type="int" >      226 </v>
  <v type="int" >       10 </v>
  <v type="int" >      225 </v>
  <v type="int" >        3 </v>
  <v type="int" >      267 </v>
  <v type="int" >      126 </v>
  <v type="int" >       77 </v>
  <v type="int" >       75 </v>
  <v type="int" >       42 </v>
  <v type="int" >      238 </v>
  <v type="int" >      224 </v>
  <v type="int" >       89 </v>
  <v type="int" >       78 </v>
  <v type="int" >      124 </v>
  <v type="int" >      281 </v>
  <v type="int" >       28 </v>
  <v type="int" >      240 </v>
  <v type="int" >       22 </v>
  <v type="int" >       49 </v>
  <v type="int" >      283 </v>
  <v type="int" >      239 </v>
  <v type="int" >      173 </v>
  <v type="int" >      237 </v>
  <v type="int" >        4 </v>
  <v type="int" >       27 </v>
  <v type="int" >       90 </v>
  <v type="int" >      172 </v>
  <v type="int" >      125 </v>
  <v type="int" >      123 </v>
  <v type="int" >       67 </v>
  <v type="int" >      270 </v>
  <v type="int" >       50 </v>
  <v type="int" >      269 </v>
  <v type="int" >      174 </v>
  <v type="int" >       70 </v>
  <v type="int" >      209 </v>
  <v type="int" >      215 </v>
  <v type="int" >      208 </v>
  <v type="int" >      114 </v>
  <v type="int" >      171 </v>
  <v type="int" >      214 </v>
  <v type="int" >       13 </v>
  <v type="int" >       71 </v>
  <v type="int" >       52 </v>
  <v type="int" >       97 </v>
  <v type="int" >      216 </v>
  <v type="int" >      169 </v>
  <v type="int" >      291 </v>
  <v type="int" >      179 </v>
  <v type="int" >      210 </v>
  <v type="int" >       68 </v>
  <v type="int" >       92 </v>
  <v type="int" >      170 </v>
  <v type="int" >       93 </v>
  <v type="int" >      178 </v>
  <v type="int" >      207 </v>
  <v type="int" >       99 </v>
  <v type="int" >      136 </v>
  <v type="int" >      249 </v>
  <v type="int" >       34 </v>
  <v type="int" >      247 </v>
  <v type="int" >      213 </v>
  <v type="int" >      243 </v>
  <v type="int" >      255 </v>
  <v type="int" >      138 </v>
  <v type="int" >       53 </v>
  <v type="int" >      180 </v>
  <v type="int" >      292 </v>
  <v type="int" >      211 </v>
  <v type="int" >      242 </v>
  <v type="int" >      300 </v>
  <v type="int" >       51 </v>
  <v type="int" >      205 </v>
  <v type="int" >      298 </v>
  <v type="int" >      206 </v>
  <v type="int" >      144 </v>
  <v type="int" >       33 </v>
  <v type="int" >      131 </v>
  <v type="int" >      253 </v>
  <v type="int" >       98 </v>
  <v type="int" >      143 </v>
  <v type="int" >      212 </v>
  <v type="int" >       91 </v>
  <v type="int" >      241 </v>
  <v type="int" >      140 </v>
  <v type="int" >      177 </v>
  <v type="int" >      133 </v>
  <v type="int" >      248 </v>
  <v type="int" >      141 </v>
  <v type="int" >      256 </v>
  <v type="int" >       31 </v>
  <v type="int" >      306 </v>
  <v type="int" >       29 </v>
  <v type="int" >      137 </v>
  <v type="int" >       14 </v>
  <v type="int" >      135 </v>
  <v type="int" >      104 </v>
  <v type="int" >      305 </v>
  <v type="int" >      175 </v>
  <v type="int" >      100 </v>
  <v type="int" >      295 </v>
  <v type="int" >      293 </v>
  <v type="int" >      303 </v>
  <v type="int" >       69 </v>
  <v type="int" >      254 </v>
  <v type="int" >      297 </v>
  <v type="int" >      299 </v>
  <v type="int" >      302 </v>
  <v type="int" >       72 </v>
  <v type="int" >      103 </v>
  <v type="int" >       95 </v>
  <v type="int" >      176 </v>
  <v type="int" >       96 </v>
  <v type="int" >       56 </v>
  <v type="int" >      304 </v>
  <v type="int" >       16 </v>
  <v type="int" >      142 </v>
  <v type="int" >      102 </v>
  <v type="int" >       11 </v>
  <v type="int" >      252 </v>
  <v type="int" >      301 </v>
  <v type="int" >      250 </v>
  <v type="int" >       65 </v>
  <v type="int" >      181 </v>
  <v type="int" >       18 </v>
  <v type="int" >      139 </v>
  <v type="int" >      246 </v>
  <v type="int" >      288 </v>
  <v type="int" >       15 </v>
  <v type="int" >      186 </v>
  <v type="int" >       17 </v>
  <v type="int" >      296 </v>
  <v type="int" >      294 </v>
  <v type="int" >      134 </v>
  <v type="int" >      245 </v>
  <v type="int" >      132 </v>
  <v type="int" >       54 </v>
  <v type="int" >      287 </v>
  <v type="int" >      199 </v>
  <v type="int" >      115 </v>
  <v type="int" >      204 </v>
  <v type="int" >       94 </v>
  <v type="int" >      244 </v>
  <v type="int" >      101 </v>
  <v type="int" >       36 </v>
  <v type="int" >       88 </v>
  <v type="int" >      129 </v>
  <v type="int" >       57 </v>
  <v type="int" >      251 </v>
  <v type="int" >      182 </v>
  <v type="int" >       32 </v>
  <v type="int" >      260 </v>
  <v type="int" >       62 </v>
  <v type="int" >       35 </v>
  <v type="int" >       30 </v>
  <v type="int" >      272 </v>
  <v type="int" >      258 </v>
  <v type="int" >      185 </v>
  <v type="int" >      193 </v>
  <v type="int" >      259 </v>
  <v type="int" >      236 </v>
  <v type="int" >      200 </v>
  <v type="int" >       66 </v>
  <v type="int" >       59 </v>
  <v type="int" >      106 </v>
  <v type="int" >      198 </v>
  <v type="int" >      257 </v>
  <v type="int" >      189 </v>
  <v type="int" >      271 </v>
  <v type="int" >      203 </v>
  <v type="int" >      119 </v>
  <v type="int" >       23 </v>
  <v type="int" >       12 </v>
  <v type="int" >       45 </v>
  <v type="int" >      105 </v>
  <v type="int" >       58 </v>
  <v type="int" >       86 </v>
  <v type="int" >        8 </v>
  <v type="int" >      183 </v>
  <v type="int" >      187 </v>
  <v type="int" >       60 </v>
  <v type="int" >      235 </v>
  <v type="int" >      290 </v>
  <v type="int" >      117 </v>
  <v type="int" >       63 </v>
  <v type="int" >      184 </v>
  <v type="int" >      192 </v>
  <v type="int" >      194 </v>
  <v type="int" >      190 </v>
  <v type="int" >      188 </v>
  <v type="int" >       84 </v>
  <v type="int" >      277 </v>
  <v type="int" >      289 </v>
  <v type="int" >      130 </v>
  <v type="int" >      201 </v>
  <v type="int" >       25 </v>
  <v type="int" >      202 </v>
  <v type="int" >      232 </v>
  <v type="int" >        5 </v>
  <v type="int" >       64 </v>
  <v type="int" >      228 </v>
  <v type="int" >      158 </v>
  <v type="int" >      197 </v>
  <v type="int" >      279 </v>
  <v type="int" >      195 </v>
  <v type="int" >        6 </v>
  <v type="int" >       26 </v>
  <v type="int" >      275 </v>
  <v type="int" >       55 </v>
  <v type="int" >       48 </v>
  <v type="int" >      118 </v>
  <v type="int" >      227 </v>
  <v type="int" >      233 </v>
  <v type="int" >       61 </v>
  <v type="int" >      116 </v>
  <v type="int" >       85 </v>
  <v type="int" >      230 </v>
  <v type="int" >      191 </v>
  <v type="int" >      278 </v>
  <v type="int" >      157 </v>
  <v type="int" >      159 </v>
  <v type="int" >      196 </v>
  <v type="int" >      273 </v>
  <v type="int" >      276 </v>
  <v type="int" >      164 </v>
  <v type="int" >      274 </v>
  <v type="int" >      234 </v>
  <v type="int" >      231 </v>
  <v type="int" >      229 </v>
  <v type="int" >       81 </v>
  <v type="int" >      280 </v>
  <v type="int" >      120 </v>
  <v type="int" >       83 </v>
  <v type="int" >      122 </v>
  <v type="int" >      121 </v>
  <v type="int" >       87 </v>
  <v type="int" >      162 </v>
  <v type="int" >      165 </v>
  <v type="int" >        7 </v>
  <v type="int" >      160 </v>
  <v type="int" >      163 </v>
  <v type="int" >       24 </v>
  <v type="int" >       82 </v>
  <v type="int" >       44 </v>
  <v type="int" >       43 </v>
  <v type="int" >      161 </v>
  <v type="int" >      112 </v>
  <v type="int" >      166 </v>
  <v type="int" >       47 </v>
  <v type="int" >      168 </v>
  <v type="int" >      110 </v>
  <v type="int" >      266 </v>
  <v type="int" >      111 </v>
  <v type="int" >       46 </v>
  <v type="int" >      167 </v>
  <v type="int" >      265 </v>
  <v type="int" >       20 </v>
  <v type="int" >      264 </v>
  <v type="int" >        2 </v>
  <v type="int" >       74 </v>
  <v type="int" >      219 </v>
  <v type="int" >      220 </v>
 </varray>
 <kpoints>
  <generation param="listgenerated">
   <i name="divisions" type="int">      20 </i>
   <v>       0.00000000       0.00000000       0.00000000 </v>
   <v>       0.50000000       0.00000000       0.00000000 </v>
   <v>       0.50000000       0.50000000       0.00000000 </v>
   <v>       0.00000000       0.00000000       0.00000000 </v>
  </generation>
  <varray name="kpointlist" >
   <v>       0.00000000       0.00000000       0.00000000 </v>
   <v>       0.02631579       0.00000000       0.00000000 </v>
   <v>       0.05263158       0.00000000       0.00000000 </v>
   <v>       0.07894737       0.00000000       0.00000000 </v>
   <v>       0.10526316       0.00000000       0.00000000 </v>
   <v>       0.13157895       0.00000000       0.00000000 </v>
   <v>       0.15789474       0.00000000       0.00000000 </v>
   <v>       0.18421053       0.00000000       0.00000000 </v>
   <v>       0.21052632       0.00000000       0.00000000 </v>
   <v>       0.23684211       0.00000000       0.00000000 </v>
   <v>       0.26315789       0.00000000       0.00000000 </v>
   <v>       0.28947368       0.00000000       0.00000000 </v>
   <v>       0.31578947       0.00000000       0.00000000 </v>
   <v>       0.34210526       0.00000000       0.00000000 </v>
   <v>       0.36842105       0.00000000       0.00000000 </v>
   <v>       0.39473684       0.00000000       0.00000000 </v>
   <v>       0.42105263       0.00000000       0.00000000 </v>
   <v>       0.44736842       0.00000000       0.00000000 </v>
   <v>       0.47368421       0.00000000       0.00000000 </v>
   <v>       0.50000000       0.00000000       0.00000000 </v>
   <v>       0.50000000       0.00000000       0.00000000 </v>
   <v>       0.50000000       0.02631579       0.00000000 </v>
   <v>       0.50000000       0.05263158       0.00000000 </v>
   <v>       0.50000000       0.07894737       0.00000000 </v>
   <v>       0.50000000       0.10526316       0.00000000 </v>
   <v>       0.50000000       0.13157895       0.00000000 </v>
   <v>       0.50000000       0.15789474       0.00000000 </v>
   <v>       0.50000000       0.18421053       0.00000000 </v>
   <v>       0.50000000       0.21052632       0.00000000 </v>
   <v>       0.50000000       0.23684211       0.00000000 </v>
   <v>       0.50000000       0.26315789       0.00000000 </v>
   <v>       0.50000000       0.28947368       0.00000000 </v>
   <v>       0.50000000       0.31578947       0.00000000 </v>
   <v>       0.50000000       0.34210526       0.00000000 </v>
   <v>       0.50000000       0.36842105       0.00000000 </v>
   <v>       0.50000000       0.39473684       0.00000000 </v>
   <v>       0.50000000       0.42105263       0.00000000 </v>
   <v>       0.50000000       0.44736842       0.00000000 </v>
   <v>       0.50000000       0.47368421       0.00000000 </v>
   <v>       0.50000000       0.50000000       0.00000000 </v>
   <v>       0.50000000       0.50000000       0.00000000 </v>
   <v>       0.47368421       0.47368421       0.00000000 </v>
   <v>       0.44736842       0.44736842       0.00000000 </v>
   <v>       0.42105263       0.42105263       0.00000000 </v>
   <v>       0.39473684       0.39473684       0.00000000 </v>
   <v>       0.36842105       0.36842105       0.00000000 </v>
   <v>       0.34210526       0.34210526       0.00000000 </v>
   <v>       0.31578947       0.31578947       0.00000000 </v>
   <v>       0.28947368       0.28947368       0.00000000 </v>
   <v>       0.26315789       0.26315789       0.00000000 </v>
   <v>       0.23684211       0.23684211       0.00000000 </v>
   <v>       0.21052632       0.21052632       0.00000000 </v>
   <v>       0.18421053       0.18421053       0.00000000 </v>
   <v>       0.15789474       0.15789474       0.00000000 </v>
   <v>       0.13157895       0.13157895       0.00000000 </v>
   <v>       0.10526316       0.10526316       0.00000000 </v>
   <v>       0.07894737       0.07894737       0.00000000 </v>
   <v>       0.05263158       0.05263158       0.00000000 </v>
   <v>       0.02631579       0.02631579       0.00000000 </v>
   <v>       0.00000000       0.00000000       0.00000000 </v>
  </varray>
  <varray name="weights" >
   <v>       0.01666667 </v>
   <v>       0.01666667 </v>
   <v>       0.01666667 </v>
   <v>       0.01666667 </v>
   <v>       0.01666667 </v>
   <v>       0.01666667 </v>
   <v>       0.01666667 </v>
   <v>       0.01666667 </v>
   <v>       0.01666667 </v>
   <v>       0.01666667 </v>
   <v>       0.01666667 </v>
   <v>       0.01666667 </v>
   <v>       0.01666667 </v>
   <v>       0.01666667 </v>
   <v>       0.01666667 </v>
   <v>       0.01666667 </v>
   <v>       0.01666667 </v>
   <v>       0.01666667 </v>
   <v>       0.01666667 </v>
   <v>       0.01666667 </v>
   <v>       0.01666667 </v>
   <v>       0.01666667 </v>
   <v>       0.01666667 </v>
   <v>       0.01666667 </v>
   <v>       0.01666667 </v>
   <v>       0.01666667 </v>
   <v>       0.01666667 </v>
   <v>       0.01666667 </v>
   <v>       0.01666667 </v>
   <v>       0.01666667 </v>
   <v>       0.01666667 </v>
   <v>       0.01666667 </v>
   <v>       0.01666667 </v>
   <v>       0.01666667 </v>
   <v>       0.01666667 </v>
   <v>       0.01666667 </v>
   <v>       0.01666667 </v>
   <v>       0.01666667 </v>
   <v>       0.01666667 </v>
   <v>       0.01666667 </v>
   <v>       0.01666667 </v>
   <v>       0.01666667 </v>
   <v>       0.01666667 </v>
   <v>       0.01666667 </v>
   <v>       0.01666667 </v>
   <v>       0.01666667 </v>
   <v>       0.01666667 </v>
   <v>       0.01666667 </v>
   <v>       0.01666667 </v>
   <v>       0.01666667 </v>
   <v>       0.01666667 </v>
   <v>       0.01666667 </v>
   <v>       0.01666667 </v>
   <v>       0.01666667 </v>
   <v>       0.01666667 </v>
   <v>       0.01666667 </v>
   <v>       0.01666667 </v>
   <v>       0.01666667 </v>
   <v>       0.01666667 </v>
   <v>       0.01666667 </v>
  </varray>
 </kpoints>
 <parameters>
  <separator name="general" >
   <i type="string" name="SYSTEM">Simulation for cell shape cell volume r</i>
   <i type="logical" name="LCOMPAT"> F  </i>
  </separator>
  <separator name="electronic" >
   <i type="string" name="PREC">high</i>
   <i name="ENMAX">    500.00000000</i>
   <i name="ENAUG">    644.87300000</i>
   <i name="EDIFF">      0.00001000</i>
   <i type="int" name="IALGO">    38</i>
   <i type="int" name="IWAVPR">    10</i>
   <i type="int" name="NBANDS">   624</i>
   <i name="NELECT">    936.00000000</i>
   <i type="int" name="TURBO">     0</i>
   <i type="int" name="IRESTART">     0</i>
   <i type="int" name="NREBOOT">     0</i>
   <i type="int" name="NMIN">     0</i>
   <i name="EREF">      0.00000000</i>
   <separator name="electronic smearing" >
    <i type="int" name="ISMEAR">     0</i>
    <i name="SIGMA">      0.01000000</i>
    <i name="KSPACING">      0.50000000</i>
    <i type="logical" name="KGAMMA"> T  </i>
   </separator>
   <separator name="electronic projectors" >
    <i type="logical" name="LREAL"> T  </i>
    <v name="ROPT">     -0.00040000     -0.00040000     -0.00040000</v>
    <i type="int" name="LMAXPAW">  -100</i>
    <i type="int" name="LMAXMIX">     2</i>
    <i type="logical" name="NLSPLINE"> F  </i>
   </separator>
   <separator name="electronic startup" >
    <i type="int" name="ISTART">     1</i>
    <i type="int" name="ICHARG">    11</i>
    <i type="int" name="INIWAV">     1</i>
   </separator>
   <separator name="electronic spin" >
    <i type="int" name="ISPIN">     1</i>
    <i type="logical" name="LNONCOLLINEAR"> F  </i>
    <v name="MAGMOM">      1.00000000      1.00000000      1.00000000      1.00000000      1.00000000      1.00000000      1.00000000      1.00000000      1.00000000      1.00000000      1.00000000      1.00000000      1.00000000      1.00000000      1.00000000      1.00000000      1.00000000      1.00000000      1.00000000      1.00000000
      1.00000000      1.00000000      1.00000000      1.00000000      1.00000000      1.00000000      1.00000000      1.00000000      1.00000000      1.00000000      1.00000000      1.00000000      1.00000000      1.00000000      1.00000000      1.00000000      1.00000000      1.00000000      1.00000000      1.00000000
      1.00000000      1.00000000      1.00000000      1.00000000      1.00000000      1.00000000      1.00000000      1.00000000      1.00000000      1.00000000      1.00000000      1.00000000      1.00000000      1.00000000      1.00000000      1.00000000      1.00000000      1.00000000      1.00000000      1.00000000
      1.00000000      1.00000000      1.00000000      1.00000000      1.00000000      1.00000000      1.00000000      1.00000000      1.00000000      1.00000000      1.00000000      1.00000000      1.00000000      1.00000000      1.00000000      1.00000000      1.00000000      1.00000000      1.00000000      1.00000000
      1.00000000      1.00000000      1.00000000      1.00000000      1.00000000      1.00000000      1.00000000      1.00000000      1.00000000      1.00000000      1.00000000      1.00000000      1.00000000      1.00000000      1.00000000      1.00000000      1.00000000      1.00000000      1.00000000      1.00000000
      1.00000000      1.00000000      1.00000000      1.00000000      1.00000000      1.00000000      1.00000000      1.00000000      1.00000000      1.00000000      1.00000000      1.00000000      1.00000000      1.00000000      1.00000000      1.00000000      1.00000000      1.00000000      1.00000000      1.00000000
      1.00000000      1.00000000      1.00000000      1.00000000      1.00000000      1.00000000      1.00000000      1.00000000      1.00000000      1.00000000      1.00000000      1.00000000      1.00000000      1.00000000      1.00000000      1.00000000      1.00000000      1.00000000      1.00000000      1.00000000
      1.00000000      1.00000000      1.00000000      1.00000000      1.00000000      1.00000000      1.00000000      1.00000000      1.00000000      1.00000000      1.00000000      1.00000000      1.00000000      1.00000000      1.00000000      1.00000000      1.00000000      1.00000000      1.00000000      1.00000000
      1.00000000      1.00000000      1.00000000      1.00000000      1.00000000      1.00000000      1.00000000      1.00000000      1.00000000      1.00000000      1.00000000      1.00000000      1.00000000      1.00000000      1.00000000      1.00000000      1.00000000      1.00000000      1.00000000      1.00000000
      1.00000000      1.00000000      1.00000000      1.00000000      1.00000000      1.00000000      1.00000000      1.00000000      1.00000000      1.00000000      1.00000000      1.00000000      1.00000000      1.00000000      1.00000000      1.00000000      1.00000000      1.00000000      1.00000000      1.00000000
      1.00000000      1.00000000      1.00000000      1.00000000      1.00000000      1.00000000      1.00000000      1.00000000      1.00000000      1.00000000      1.00000000      1.00000000      1.00000000      1.00000000      1.00000000      1.00000000      1.00000000      1.00000000      1.00000000      1.00000000
      1.00000000      1.00000000      1.00000000      1.00000000      1.00000000      1.00000000      1.00000000      1.00000000      1.00000000      1.00000000      1.00000000      1.00000000      1.00000000      1.00000000      1.00000000      1.00000000      1.00000000      1.00000000      1.00000000      1.00000000
      1.00000000      1.00000000      1.00000000      1.00000000      1.00000000      1.00000000      1.00000000      1.00000000      1.00000000      1.00000000      1.00000000      1.00000000      1.00000000      1.00000000      1.00000000      1.00000000      1.00000000      1.00000000      1.00000000      1.00000000
      1.00000000      1.00000000      1.00000000      1.00000000      1.00000000      1.00000000      1.00000000      1.00000000      1.00000000      1.00000000      1.00000000      1.00000000      1.00000000      1.00000000      1.00000000      1.00000000      1.00000000      1.00000000      1.00000000      1.00000000
      1.00000000      1.00000000      1.00000000      1.00000000      1.00000000      1.00000000      1.00000000      1.00000000      1.00000000      1.00000000      1.00000000      1.00000000      1.00000000      1.00000000      1.00000000      1.00000000      1.00000000      1.00000000      1.00000000      1.00000000
      1.00000000      1.00000000      1.00000000      1.00000000      1.00000000      1.00000000</v>
    <i name="NUPDOWN">     -1.00000000</i>
    <i type="logical" name="LSORBIT"> F  </i>
    <v name="SAXIS">      0.00000000      0.00000000      1.00000000</v>
    <i type="logical" name="LSPIRAL"> F  </i>
    <v name="QSPIRAL">      0.00000000      0.00000000      0.00000000</v>
    <i type="logical" name="LZEROZ"> F  </i>
   </separator>
   <separator name="electronic exchange-correlation" >
    <i type="logical" name="LASPH"> F  </i>
    <i type="logical" name="LMETAGGA"> F  </i>
   </separator>
   <separator name="electronic convergence" >
    <i type="int" name="NELM">   200</i>
    <i type="int" name="NELMDL">     0</i>
    <i type="int" name="NELMIN">     2</i>
    <i name="ENINI">    500.00000000</i>
    <separator name="electronic convergence detail" >
     <i type="logical" name="LDIAG"> T  </i>
     <i type="logical" name="LSUBROT"> F  </i>
     <i name="WEIMIN">      0.00000000</i>
     <i name="EBREAK">      0.00000000</i>
     <i name="DEPER">      0.30000000</i>
     <i type="int" name="NRMM">     4</i>
     <i name="TIME">      0.40000000</i>
    </separator>
   </separator>
   <separator name="electronic mixer" >
    <i name="AMIX">      0.40000000</i>
    <i name="BMIX">      1.00000000</i>
    <i name="AMIN">      0.10000000</i>
    <i name="AMIX_MAG">      1.60000000</i>
    <i name="BMIX_MAG">      1.00000000</i>
    <separator name="electronic mixer details" >
     <i type="int" name="IMIX">     4</i>
     <i type="logical" name="MIXFIRST"> F  </i>
     <i type="int" name="MAXMIX">   -45</i>
     <i name="WC">    100.00000000</i>
     <i type="int" name="INIMIX">     1</i>
     <i type="int" name="MIXPRE">     1</i>
     <i type="int" name="MREMOVE">     5</i>
    </separator>
   </separator>
   <separator name="electronic dipolcorrection" >
    <i type="logical" name="LDIPOL"> F  </i>
    <i type="logical" name="LMONO"> F  </i>
    <i type="int" name="IDIPOL">     0</i>
    <i name="EPSILON">      1.00000000</i>
    <v name="DIPOL">   -100.00000000   -100.00000000   -100.00000000</v>
    <i name="EFIELD">      0.00000000</i>
   </separator>
  </separator>
  <separator name="grids" >
   <i type="int" name="NGX">   250</i>
   <i type="int" name="NGY">   250</i>
   <i type="int" name="NGZ">   150</i>
   <i type="int" name="NGXF">   378</i>
   <i type="int" name="NGYF">   378</i>
   <i type="int" name="NGZF">   224</i>
   <i type="logical" name="ADDGRID"> F  </i>
  </separator>
  <separator name="ionic" >
   <i type="int" name="NSW">     0</i>
   <i type="int" name="IBRION">    -1</i>
   <i type="int" name="MDALGO">     0</i>
   <i type="int" name="ISIF">     2</i>
   <i name="PSTRESS">      0.00000000</i>
   <i name="EDIFFG">     -0.01000000</i>
   <i type="int" name="NFREE">     0</i>
   <i name="POTIM">      0.30000000</i>
   <i name="SMASS">     -3.00000000</i>
   <i name="SCALEE">      1.00000000</i>
  </separator>
  <separator name="ionic md" >
   <i name="TEBEG">      0.00010000</i>
   <i name="TEEND">      0.00010000</i>
   <i type="int" name="NBLOCK">     1</i>
   <i type="int" name="KBLOCK">     1</i>
   <i type="int" name="NPACO">   256</i>
   <i name="APACO">     16.00000000</i>
  </separator>
  <separator name="symmetry" >
   <i type="int" name="ISYM">     2</i>
   <i name="SYMPREC">      0.00001000</i>
  </separator>
  <separator name="dos" >
   <i type="int" name="LORBIT">     0</i>
   <v name="RWIGS">     -1.00000000     -1.00000000     -1.00000000</v>
   <i type="int" name="NEDOS">   301</i>
   <i name="EMIN">     10.00000000</i>
   <i name="EMAX">    -10.00000000</i>
   <i name="EFERMI">      0.00000000</i>
  </separator>
  <separator name="writing" >
   <i type="int" name="NWRITE">     0</i>
   <i type="logical" name="LWAVE"> F  </i>
   <i type="logical" name="LDOWNSAMPLE"> F  </i>
   <i type="logical" name="LCHARG"> F  </i>
   <i type="logical" name="LPARD"> F  </i>
   <i type="logical" name="LVTOT"> F  </i>
   <i type="logical" name="LVHAR"> F  </i>
   <i type="logical" name="LELF"> F  </i>
   <i type="logical" name="LOPTICS"> F  </i>
   <v name="STM">      0.00000000      0.00000000      0.00000000      0.00000000      0.00000000      0.00000000      0.00000000</v>
  </separator>
  <separator name="performance" >
   <i type="int" name="NPAR">    16</i>
   <i type="int" name="NSIM">     4</i>
   <i type="int" name="NBLK">    -1</i>
   <i type="logical" name="LPLANE"> T  </i>
   <i type="logical" name="LSCALAPACK"> T  </i>
   <i type="logical" name="LSCAAWARE"> F  </i>
   <i type="logical" name="LSCALU"> F  </i>
   <i type="logical" name="LASYNC"> F  </i>
   <i type="logical" name="LORBITALREAL"> F  </i>
  </separator>
  <separator name="miscellaneous" >
   <i type="int" name="IDIOT">     3</i>
   <i type="int" name="ISPECIAL">     0</i>
   <i type="logical" name="LMUSIC"> F  </i>
   <v name="POMASS">     14.00100000      1.00000000     12.01100000</v>
   <v name="DARWINR">      0.00000000      0.00000000      0.00000000</v>
   <v name="DARWINV">      1.00000000      1.00000000      1.00000000</v>
   <i type="logical" name="LCORR"> T  </i>
  </separator>
  <i type="logical" name="GGA_COMPAT"> T  </i>
  <i type="logical" name="LBERRY"> F  </i>
  <i type="int" name="ICORELEVEL">     0</i>
  <i type="logical" name="LDAU"> F  </i>
  <i type="int" name="I_CONSTRAINED_M">     0</i>
  <separator name="electronic exchange-correlation" >
   <i type="string" name="GGA">PE</i>
   <i type="int" name="VOSKOWN">     0</i>
   <i type="logical" name="LHFCALC"> F  </i>
   <i type="string" name="PRECFOCK"></i>
   <i type="logical" name="LSYMGRAD"> F  </i>
   <i type="logical" name="LHFONE"> F  </i>
   <i type="logical" name="LRHFCALC"> F  </i>
   <i type="logical" name="LTHOMAS"> F  </i>
   <i type="logical" name="LMODELHF"> F  </i>
   <i name="ENCUT4O">     -1.00000000</i>
   <i type="int" name="EXXOEP">     0</i>
   <i type="int" name="FOURORBIT">     0</i>
   <i name="AEXX">      0.00000000</i>
   <i name="HFALPHA">      0.00000000</i>
   <i name="MCALPHA">      0.00000000</i>
   <i name="ALDAX">      1.00000000</i>
   <i name="AGGAX">      1.00000000</i>
   <i name="ALDAC">      1.00000000</i>
   <i name="AGGAC">      1.00000000</i>
   <i type="int" name="NKREDX">     1</i>
   <i type="int" name="NKREDY">     1</i>
   <i type="int" name="NKREDZ">     1</i>
   <i type="logical" name="SHIFTRED"> F  </i>
   <i type="logical" name="ODDONLY"> F  </i>
   <i type="logical" name="EVENONLY"> F  </i>
   <i type="int" name="LMAXFOCK">     0</i>
   <i type="int" name="NMAXFOCKAE">     0</i>
   <i type="logical" name="LFOCKAEDFT"> F  </i>
   <i name="HFSCREEN">      0.00000000</i>
   <i name="HFSCREENC">      0.00000000</i>
   <i type="int" name="NBANDSGWLOW">     0</i>
  </separator>
  <separator name="vdW DFT" >
   <i type="logical" name="LUSE_VDW"> F  </i>
   <i name="Zab_VDW">     -0.84910000</i>
   <i name="PARAM1">      0.12340000</i>
   <i name="PARAM2">      1.00000000</i>
   <i name="PARAM3">      0.00000000</i>
  </separator>
  <separator name="model GW" >
   <i type="int" name="MODEL_GW">     0</i>
   <i name="MODEL_EPS0">     45.36757755</i>
   <i name="MODEL_ALPHA">      1.00000000</i>
  </separator>
  <separator name="linear response parameters" >
   <i type="logical" name="LEPSILON"> F  </i>
   <i type="logical" name="LRPA"> F  </i>
   <i type="logical" name="LNABLA"> F  </i>
   <i type="logical" name="LVEL"> F  </i>
   <i type="int" name="KINTER">     0</i>
   <i name="CSHIFT">      0.10000000</i>
   <i name="OMEGAMAX">     -1.00000000</i>
   <i name="DEG_THRESHOLD">      0.00200000</i>
   <i name="RTIME">     -0.10000000</i>
   <i name="WPLASMAI">      0.00000000</i>
   <v name="DFIELD">      0.00000000      0.00000000      0.00000000</v>
   <v name="WPLASMA">      0.00000000      0.00000000      0.00000000      0.00000000      0.00000000      0.00000000      0.00000000      0.00000000      0.00000000</v>
  </separator>
  <separator name="orbital magnetization" >
   <i type="logical" name="NUCIND"> F  </i>
   <v name="MAGPOS">      0.00000000      0.00000000      0.00000000</v>
   <i type="logical" name="LNICSALL"> T  </i>
   <i type="logical" name="ORBITALMAG"> F  </i>
   <i type="logical" name="LMAGBLOCH"> F  </i>
   <i type="logical" name="LCHIMAG"> F  </i>
   <i type="logical" name="LGAUGE"> T  </i>
   <i type="int" name="MAGATOM">     0</i>
   <v name="MAGDIPOL">      0.00000000      0.00000000      0.00000000</v>
   <v name="AVECCONST">      0.00000000      0.00000000      0.00000000</v>
  </separator>
  <separator name="response functions" >
   <i type="logical" name="LADDER"> F  </i>
   <i type="logical" name="LRPAFORCE"> F  </i>
   <i type="logical" name="LFXC"> F  </i>
   <i type="logical" name="LHARTREE"> T  </i>
   <i type="int" name="IBSE">     0</i>
   <v type="int" name="KPOINT">    -1     0     0     0</v>
   <i type="logical" name="LTCTE"> F  </i>
   <i type="logical" name="LTETE"> F  </i>
   <i type="logical" name="LTRIPLET"> F  </i>
   <i type="logical" name="LFXCEPS"> F  </i>
   <i type="logical" name="LFXHEG"> F  </i>
   <i type="int" name="NATURALO">     2</i>
   <i type="logical" name="L2ORDER"> F  </i>
   <i type="logical" name="LMP2LT"> F  </i>
   <i type="logical" name="LUSEW"> F  </i>
   <i name="ENCUTGW">     -2.00000000</i>
   <i name="ENCUTGWSOFT">     -2.00000000</i>
   <i name="ENCUTLF">     -1.00000000</i>
   <i type="int" name="LMAXMP2">    -1</i>
   <i name="SCISSOR">      0.00000000</i>
   <i type="int" name="NOMEGA">     0</i>
   <i type="int" name="NOMEGAR">     0</i>
   <i type="int" name="NBANDSGW">    -1</i>
   <i type="int" name="NBANDSO">    -1</i>
   <i type="int" name="NBANDSV">    -1</i>
   <i type="int" name="NELM">   200</i>
   <i type="int" name="NELMHF">     1</i>
   <i type="int" name="DIM">     3</i>
   <i type="int" name="ANTIRES">     0</i>
   <i name="OMEGAMAX">    -30.00000000</i>
   <i name="OMEGAMIN">    -30.00000000</i>
   <i name="OMEGATL">   -200.00000000</i>
   <i type="int" name="OMEGAGRID">   140</i>
   <i name="CSHIFT">     -0.10000000</i>
   <i type="logical" name="SELFENERGY"> F  </i>
   <i type="logical" name="LSPECTRAL"> F  </i>
   <i type="logical" name="LSPECTRALGW"> F  </i>
   <i type="logical" name="LSINGLES"> F  </i>
   <i type="logical" name="LFERMIGW"> F  </i>
   <i type="logical" name="ODDONLYGW"> F  </i>
   <i type="logical" name="EVENONLYGW"> F  </i>
   <i type="int" name="NKREDLFX">     1</i>
   <i type="int" name="NKREDLFY">     1</i>
   <i type="int" name="NKREDLFZ">     1</i>
   <i type="int" name="MAXMEM">  2800</i>
   <i type="int" name="TELESCOPE">     0</i>
   <i type="int" name="TAUPAR">     1</i>
   <i type="int" name="OMEGAPAR">    -1</i>
   <i name="LAMBDA">      1.00000000</i>
  </separator>
  <separator name="External order field" >
   <i name="OFIELD_KAPPA">      0.00000000</i>
   <v name="OFIELD_K">      0.00000000      0.00000000      0.00000000</v>
   <i name="OFIELD_Q6_NEAR">      0.00000000</i>
   <i name="OFIELD_Q6_FAR">      0.00000000</i>
   <i name="OFIELD_A">      0.00000000</i>
  </separator>
  <separator name="solvation model" >
   <i type="logical" name="LSOL"> F  </i>
  </separator>
 </parameters>
 <atominfo>
  <atoms>     306 </atoms>
  <types>       3 </types>
  <array name="atoms" >
   <dimension dim="1">ion</dimension>
   <field type="string">element</field>
   <field type="int">atomtype</field>
   <set>
    <rc><c>N </c><c>   1</c></rc>
    <rc><c>N </c><c>   1</c></rc>
    <rc><c>N </c><c>   1</c></rc>
    <rc><c>N </c><c>   1</c></rc>
    <rc><c>N </c><c>   1</c></rc>
    <rc><c>N </c><c>   1</c></rc>
    <rc><c>N </c><c>   1</c></rc>
    <rc><c>N </c><c>   1</c></rc>
    <rc><c>N </c><c>   1</c></rc>
    <rc><c>N </c><c>   1</c></rc>
    <rc><c>N </c><c>   1</c></rc>
    <rc><c>N </c><c>   1</c></rc>
    <rc><c>N </c><c>   1</c></rc>
    <rc><c>N </c><c>   1</c></rc>
    <rc><c>N </c><c>   1</c></rc>
    <rc><c>N </c><c>   1</c></rc>
    <rc><c>N </c><c>   1</c></rc>
    <rc><c>N </c><c>   1</c></rc>
    <rc><c>N </c><c>   1</c></rc>
    <rc><c>N </c><c>   1</c></rc>
    <rc><c>N </c><c>   1</c></rc>
    <rc><c>N </c><c>   1</c></rc>
    <rc><c>N </c><c>   1</c></rc>
    <rc><c>N </c><c>   1</c></rc>
    <rc><c>N </c><c>   1</c></rc>
    <rc><c>N </c><c>   1</c></rc>
    <rc><c>N </c><c>   1</c></rc>
    <rc><c>N </c><c>   1</c></rc>
    <rc><c>N </c><c>   1</c></rc>
    <rc><c>N </c><c>   1</c></rc>
    <rc><c>N </c><c>   1</c></rc>
    <rc><c>N </c><c>   1</c></rc>
    <rc><c>N </c><c>   1</c></rc>
    <rc><c>N </c><c>   1</c></rc>
    <rc><c>N </c><c>   1</c></rc>
    <rc><c>N </c><c>   1</c></rc>
    <rc><c>H </c><c>   2</c></rc>
    <rc><c>H </c><c>   2</c></rc>
    <rc><c>H </c><c>   2</c></rc>
    <rc><c>H </c><c>   2</c></rc>
    <rc><c>H </c><c>   2</c></rc>
    <rc><c>H </c><c>   2</c></rc>
    <rc><c>H </c><c>   2</c></rc>
    <rc><c>H </c><c>   2</c></rc>
    <rc><c>H </c><c>   2</c></rc>
    <rc><c>H </c><c>   2</c></rc>
    <rc><c>H </c><c>   2</c></rc>
    <rc><c>H </c><c>   2</c></rc>
    <rc><c>H </c><c>   2</c></rc>
    <rc><c>H </c><c>   2</c></rc>
    <rc><c>H </c><c>   2</c></rc>
    <rc><c>H </c><c>   2</c></rc>
    <rc><c>H </c><c>   2</c></rc>
    <rc><c>H </c><c>   2</c></rc>
    <rc><c>H </c><c>   2</c></rc>
    <rc><c>H </c><c>   2</c></rc>
    <rc><c>H </c><c>   2</c></rc>
    <rc><c>H </c><c>   2</c></rc>
    <rc><c>H </c><c>   2</c></rc>
    <rc><c>H </c><c>   2</c></rc>
    <rc><c>H </c><c>   2</c></rc>
    <rc><c>H </c><c>   2</c></rc>
    <rc><c>H </c><c>   2</c></rc>
    <rc><c>H </c><c>   2</c></rc>
    <rc><c>H </c><c>   2</c></rc>
    <rc><c>H </c><c>   2</c></rc>
    <rc><c>H </c><c>   2</c></rc>
    <rc><c>H </c><c>   2</c></rc>
    <rc><c>H </c><c>   2</c></rc>
    <rc><c>H </c><c>   2</c></rc>
    <rc><c>H </c><c>   2</c></rc>
    <rc><c>H </c><c>   2</c></rc>
    <rc><c>H </c><c>   2</c></rc>
    <rc><c>H </c><c>   2</c></rc>
    <rc><c>H </c><c>   2</c></rc>
    <rc><c>H </c><c>   2</c></rc>
    <rc><c>H </c><c>   2</c></rc>
    <rc><c>H </c><c>   2</c></rc>
    <rc><c>H </c><c>   2</c></rc>
    <rc><c>H </c><c>   2</c></rc>
    <rc><c>H </c><c>   2</c></rc>
    <rc><c>H </c><c>   2</c></rc>
    <rc><c>H </c><c>   2</c></rc>
    <rc><c>H </c><c>   2</c></rc>
    <rc><c>H </c><c>   2</c></rc>
    <rc><c>H </c><c>   2</c></rc>
    <rc><c>H </c><c>   2</c></rc>
    <rc><c>H </c><c>   2</c></rc>
    <rc><c>H </c><c>   2</c></rc>
    <rc><c>H </c><c>   2</c></rc>
    <rc><c>H </c><c>   2</c></rc>
    <rc><c>H </c><c>   2</c></rc>
    <rc><c>H </c><c>   2</c></rc>
    <rc><c>H </c><c>   2</c></rc>
    <rc><c>H </c><c>   2</c></rc>
    <rc><c>H </c><c>   2</c></rc>
    <rc><c>H </c><c>   2</c></rc>
    <rc><c>H </c><c>   2</c></rc>
    <rc><c>H </c><c>   2</c></rc>
    <rc><c>H </c><c>   2</c></rc>
    <rc><c>H </c><c>   2</c></rc>
    <rc><c>H </c><c>   2</c></rc>
    <rc><c>H </c><c>   2</c></rc>
    <rc><c>H </c><c>   2</c></rc>
    <rc><c>H </c><c>   2</c></rc>
    <rc><c>H </c><c>   2</c></rc>
    <rc><c>H </c><c>   2</c></rc>
    <rc><c>H </c><c>   2</c></rc>
    <rc><c>H </c><c>   2</c></rc>
    <rc><c>H </c><c>   2</c></rc>
    <rc><c>H </c><c>   2</c></rc>
    <rc><c>H </c><c>   2</c></rc>
    <rc><c>H </c><c>   2</c></rc>
    <rc><c>H </c><c>   2</c></rc>
    <rc><c>H </c><c>   2</c></rc>
    <rc><c>H </c><c>   2</c></rc>
    <rc><c>H </c><c>   2</c></rc>
    <rc><c>H </c><c>   2</c></rc>
    <rc><c>H </c><c>   2</c></rc>
    <rc><c>H </c><c>   2</c></rc>
    <rc><c>H </c><c>   2</c></rc>
    <rc><c>H </c><c>   2</c></rc>
    <rc><c>H </c><c>   2</c></rc>
    <rc><c>H </c><c>   2</c></rc>
    <rc><c>H </c><c>   2</c></rc>
    <rc><c>H </c><c>   2</c></rc>
    <rc><c>H </c><c>   2</c></rc>
    <rc><c>H </c><c>   2</c></rc>
    <rc><c>H </c><c>   2</c></rc>
    <rc><c>H </c><c>   2</c></rc>
    <rc><c>H </c><c>   2</c></rc>
    <rc><c>H </c><c>   2</c></rc>
    <rc><c>H </c><c>   2</c></rc>
    <rc><c>H </c><c>   2</c></rc>
    <rc><c>H </c><c>   2</c></rc>
    <rc><c>H </c><c>   2</c></rc>
    <rc><c>H </c><c>   2</c></rc>
    <rc><c>H </c><c>   2</c></rc>
    <rc><c>H </c><c>   2</c></rc>
    <rc><c>H </c><c>   2</c></rc>
    <rc><c>H </c><c>   2</c></rc>
    <rc><c>H </c><c>   2</c></rc>
    <rc><c>H </c><c>   2</c></rc>
    <rc><c>H </c><c>   2</c></rc>
    <rc><c>C </c><c>   3</c></rc>
    <rc><c>C </c><c>   3</c></rc>
    <rc><c>C </c><c>   3</c></rc>
    <rc><c>C </c><c>   3</c></rc>
    <rc><c>C </c><c>   3</c></rc>
    <rc><c>C </c><c>   3</c></rc>
    <rc><c>C </c><c>   3</c></rc>
    <rc><c>C </c><c>   3</c></rc>
    <rc><c>C </c><c>   3</c></rc>
    <rc><c>C </c><c>   3</c></rc>
    <rc><c>C </c><c>   3</c></rc>
    <rc><c>C </c><c>   3</c></rc>
    <rc><c>C </c><c>   3</c></rc>
    <rc><c>C </c><c>   3</c></rc>
    <rc><c>C </c><c>   3</c></rc>
    <rc><c>C </c><c>   3</c></rc>
    <rc><c>C </c><c>   3</c></rc>
    <rc><c>C </c><c>   3</c></rc>
    <rc><c>C </c><c>   3</c></rc>
    <rc><c>C </c><c>   3</c></rc>
    <rc><c>C </c><c>   3</c></rc>
    <rc><c>C </c><c>   3</c></rc>
    <rc><c>C </c><c>   3</c></rc>
    <rc><c>C </c><c>   3</c></rc>
    <rc><c>C </c><c>   3</c></rc>
    <rc><c>C </c><c>   3</c></rc>
    <rc><c>C </c><c>   3</c></rc>
    <rc><c>C </c><c>   3</c></rc>
    <rc><c>C </c><c>   3</c></rc>
    <rc><c>C </c><c>   3</c></rc>
    <rc><c>C </c><c>   3</c></rc>
    <rc><c>C </c><c>   3</c></rc>
    <rc><c>C </c><c>   3</c></rc>
    <rc><c>C </c><c>   3</c></rc>
    <rc><c>C </c><c>   3</c></rc>
    <rc><c>C </c><c>   3</c></rc>
    <rc><c>C </c><c>   3</c></rc>
    <rc><c>C </c><c>   3</c></rc>
    <rc><c>C </c><c>   3</c></rc>
    <rc><c>C </c><c>   3</c></rc>
    <rc><c>C </c><c>   3</c></rc>
    <rc><c>C </c><c>   3</c></rc>
    <rc><c>C </c><c>   3</c></rc>
    <rc><c>C </c><c>   3</c></rc>
    <rc><c>C </c><c>   3</c></rc>
    <rc><c>C </c><c>   3</c></rc>
    <rc><c>C </c><c>   3</c></rc>
    <rc><c>C </c><c>   3</c></rc>
    <rc><c>C </c><c>   3</c></rc>
    <rc><c>C </c><c>   3</c></rc>
    <rc><c>C </c><c>   3</c></rc>
    <rc><c>C </c><c>   3</c></rc>
    <rc><c>C </c><c>   3</c></rc>
    <rc><c>C </c><c>   3</c></rc>
    <rc><c>C </c><c>   3</c></rc>
    <rc><c>C </c><c>   3</c></rc>
    <rc><c>C </c><c>   3</c></rc>
    <rc><c>C </c><c>   3</c></rc>
    <rc><c>C </c><c>   3</c></rc>
    <rc><c>C </c><c>   3</c></rc>
    <rc><c>C </c><c>   3</c></rc>
    <rc><c>C </c><c>   3</c></rc>
    <rc><c>C </c><c>   3</c></rc>
    <rc><c>C </c><c>   3</c></rc>
    <rc><c>C </c><c>   3</c></rc>
    <rc><c>C </c><c>   3</c></rc>
    <rc><c>C </c><c>   3</c></rc>
    <rc><c>C </c><c>   3</c></rc>
    <rc><c>C </c><c>   3</c></rc>
    <rc><c>C </c><c>   3</c></rc>
    <rc><c>C </c><c>   3</c></rc>
    <rc><c>C </c><c>   3</c></rc>
    <rc><c>C </c><c>   3</c></rc>
    <rc><c>C </c><c>   3</c></rc>
    <rc><c>C </c><c>   3</c></rc>
    <rc><c>C </c><c>   3</c></rc>
    <rc><c>C </c><c>   3</c></rc>
    <rc><c>C </c><c>   3</c></rc>
    <rc><c>C </c><c>   3</c></rc>
    <rc><c>C </c><c>   3</c></rc>
    <rc><c>C </c><c>   3</c></rc>
    <rc><c>C </c><c>   3</c></rc>
    <rc><c>C </c><c>   3</c></rc>
    <rc><c>C </c><c>   3</c></rc>
    <rc><c>C </c><c>   3</c></rc>
    <rc><c>C </c><c>   3</c></rc>
    <rc><c>C </c><c>   3</c></rc>
    <rc><c>C </c><c>   3</c></rc>
    <rc><c>C </c><c>   3</c></rc>
    <rc><c>C </c><c>   3</c></rc>
    <rc><c>C </c><c>   3</c></rc>
    <rc><c>C </c><c>   3</c></rc>
    <rc><c>C </c><c>   3</c></rc>
    <rc><c>C </c><c>   3</c></rc>
    <rc><c>C </c><c>   3</c></rc>
    <rc><c>C </c><c>   3</c></rc>
    <rc><c>C </c><c>   3</c></rc>
    <rc><c>C </c><c>   3</c></rc>
    <rc><c>C </c><c>   3</c></rc>
    <rc><c>C </c><c>   3</c></rc>
    <rc><c>C </c><c>   3</c></rc>
    <rc><c>C </c><c>   3</c></rc>
    <rc><c>C </c><c>   3</c></rc>
    <rc><c>C </c><c>   3</c></rc>
    <rc><c>C </c><c>   3</c></rc>
    <rc><c>C </c><c>   3</c></rc>
    <rc><c>C </c><c>   3</c></rc>
    <rc><c>C </c><c>   3</c></rc>
    <rc><c>C </c><c>   3</c></rc>
    <rc><c>C </c><c>   3</c></rc>
    <rc><c>C </c><c>   3</c></rc>
    <rc><c>C </c><c>   3</c></rc>
    <rc><c>C </c><c>   3</c></rc>
    <rc><c>C </c><c>   3</c></rc>
    <rc><c>C </c><c>   3</c></rc>
    <rc><c>C </c><c>   3</c></rc>
    <rc><c>C </c><c>   3</c></rc>
    <rc><c>C </c><c>   3</c></rc>
    <rc><c>C </c><c>   3</c></rc>
    <rc><c>C </c><c>   3</c></rc>
    <rc><c>C </c><c>   3</c></rc>
    <rc><c>C </c><c>   3</c></rc>
    <rc><c>C </c><c>   3</c></rc>
    <rc><c>C </c><c>   3</c></rc>
    <rc><c>C </c><c>   3</c></rc>
    <rc><c>C </c><c>   3</c></rc>
    <rc><c>C </c><c>   3</c></rc>
    <rc><c>C </c><c>   3</c></rc>
    <rc><c>C </c><c>   3</c></rc>
    <rc><c>C </c><c>   3</c></rc>
    <rc><c>C </c><c>   3</c></rc>
    <rc><c>C </c><c>   3</c></rc>
    <rc><c>C </c><c>   3</c></rc>
    <rc><c>C </c><c>   3</c></rc>
    <rc><c>C </c><c>   3</c></rc>
    <rc><c>C </c><c>   3</c></rc>
    <rc><c>C </c><c>   3</c></rc>
    <rc><c>C </c><c>   3</c></rc>
    <rc><c>C </c><c>   3</c></rc>
    <rc><c>C </c><c>   3</c></rc>
    <rc><c>C </c><c>   3</c></rc>
    <rc><c>C </c><c>   3</c></rc>
    <rc><c>C </c><c>   3</c></rc>
    <rc><c>C </c><c>   3</c></rc>
    <rc><c>C </c><c>   3</c></rc>
    <rc><c>C </c><c>   3</c></rc>
    <rc><c>C </c><c>   3</c></rc>
    <rc><c>C </c><c>   3</c></rc>
    <rc><c>C </c><c>   3</c></rc>
    <rc><c>C </c><c>   3</c></rc>
    <rc><c>C </c><c>   3</c></rc>
    <rc><c>C </c><c>   3</c></rc>
    <rc><c>C </c><c>   3</c></rc>
    <rc><c>C </c><c>   3</c></rc>
    <rc><c>C </c><c>   3</c></rc>
    <rc><c>C </c><c>   3</c></rc>
    <rc><c>C </c><c>   3</c></rc>
    <rc><c>C </c><c>   3</c></rc>
    <rc><c>C </c><c>   3</c></rc>
    <rc><c>C </c><c>   3</c></rc>
    <rc><c>C </c><c>   3</c></rc>
    <rc><c>C </c><c>   3</c></rc>
   </set>
  </array>
  <array name="atomtypes" >
   <dimension dim="1">type</dimension>
   <field type="int">atomspertype</field>
   <field type="string">element</field>
   <field>mass</field>
   <field>valence</field>
   <field type="string">pseudopotential</field>
   <set>
    <rc><c>  36</c><c>N </c><c>     14.00100000</c><c>      5.00000000</c><c>  PAW_PBE N 08Apr2002                   </c></rc>
    <rc><c> 108</c><c>H </c><c>      1.00000000</c><c>      1.00000000</c><c>  PAW_PBE H 15Jun2001                   </c></rc>
    <rc><c> 162</c><c>C </c><c>     12.01100000</c><c>      4.00000000</c><c>  PAW_PBE C 08Apr2002                   </c></rc>
   </set>
  </array>
 </atominfo>
 <structure name="initialpos" >
  <crystal>
   <varray name="basis" >
    <v>      34.02076615       0.05506961       0.00000000 </v>
    <v>      -0.10456159      34.00474476       0.00000000 </v>
    <v>       0.00000000       0.00000000      20.00000000 </v>
   </varray>
   <i name="volume">  23137.46455273 </i>
   <varray name="rec_basis" >
    <v>       0.02939367       0.00009038       0.00000000 </v>
    <v>      -0.00004760       0.02940751       0.00000000 </v>
    <v>       0.00000000       0.00000000       0.05000000 </v>
   </varray>
  </crystal>
  <varray name="positions" >
   <v>       0.00112368       0.53388839       0.47365564 </v>
   <v>       0.46538900       0.00791285       0.47933492 </v>
   <v>       0.91973536       0.73334785       0.45687829 </v>
   <v>       0.02362207       0.27323533       0.44491304 </v>
   <v>       0.27605417       0.97318503       0.46296372 </v>
   <v>       0.73668522       0.07797908       0.44036740 </v>
   <v>       0.53403577       0.18328846       0.48766656 </v>
   <v>       0.40853747       0.80996003       0.46565965 </v>
   <v>       0.17795633       0.46456818       0.46757301 </v>
   <v>       0.80372124       0.59221693       0.48334509 </v>
   <v>       0.84971321       0.92162414       0.46952408 </v>
   <v>       0.14979869       0.07001631       0.46386952 </v>
   <v>       0.07420485       0.84603308       0.48479185 </v>
   <v>       0.92548906       0.14617065       0.45477772 </v>
   <v>       0.58657043       0.41699230       0.43968727 </v>
   <v>       0.40870310       0.58437749       0.41464914 </v>
   <v>       0.41363015       0.41103892       0.42665785 </v>
   <v>       0.58166019       0.58998094       0.42900298 </v>
   <v>       0.99583397       0.46320545       0.54272711 </v>
   <v>       0.53735353       0.99980043       0.54339310 </v>
   <v>       0.96644067       0.67806557       0.52089158 </v>
   <v>       0.08884871       0.30381760       0.51054865 </v>
   <v>       0.30796322       0.91016470       0.53266418 </v>
   <v>       0.68083024       0.03292305       0.50636804 </v>
   <v>       0.58145953       0.23984364       0.54712017 </v>
   <v>       0.46925180       0.77388191       0.53549770 </v>
   <v>       0.23431378       0.41774811       0.52872791 </v>
   <v>       0.76990042       0.52967522       0.55195874 </v>
   <v>       0.91031702       0.91261418       0.56084176 </v>
   <v>       0.08752324       0.08275659       0.55103518 </v>
   <v>       0.08360003       0.91123605       0.56663605 </v>
   <v>       0.91464985       0.08574921       0.54631647 </v>
   <v>       0.64644677       0.42979762       0.53147152 </v>
   <v>       0.34468205       0.57430166       0.49865788 </v>
   <v>       0.42318996       0.35115222       0.51946202 </v>
   <v>       0.56780543       0.65244865       0.51506587 </v>
   <v>       0.88940731       0.51591083       0.51796091 </v>
   <v>       0.97989679       0.60369901       0.49881934 </v>
   <v>       0.85802532       0.63774269       0.50913620 </v>
   <v>       0.10651793       0.47987301       0.50029797 </v>
   <v>       0.01403877       0.39348467       0.49481568 </v>
   <v>       0.13475697       0.35707863       0.48123498 </v>
   <v>       0.48409001       0.89452606       0.50835364 </v>
   <v>       0.39682917       0.98541307       0.50774739 </v>
   <v>       0.36167393       0.86357535       0.50079060 </v>
   <v>       0.52040152       0.11178776       0.51503504 </v>
   <v>       0.60721797       0.02032594       0.49152384 </v>
   <v>       0.64222597       0.14190318       0.49273826 </v>
   <v>       0.02370394       0.78210095       0.49902326 </v>
   <v>       0.89853645       0.80112236       0.49446670 </v>
   <v>       0.97729744       0.89824692       0.52897555 </v>
   <v>       0.97770136       0.21359590       0.47408852 </v>
   <v>       0.10225330       0.19058505       0.48224193 </v>
   <v>       0.02029195       0.09572223       0.50677636 </v>
   <v>       0.21670810       0.01884962       0.48854899 </v>
   <v>       0.19429257       0.89456116       0.50756496 </v>
   <v>       0.09872948       0.97632860       0.52128334 </v>
   <v>       0.78364922       0.97297398       0.48329210 </v>
   <v>       0.80476796       0.09789867       0.47605858 </v>
   <v>       0.90034270       0.01814365       0.51422159 </v>
   <v>       0.47514514       0.28586993       0.50777504 </v>
   <v>       0.59990583       0.30804518       0.51256794 </v>
   <v>       0.51915974       0.40263096       0.47332950 </v>
   <v>       0.51627395       0.71706422       0.49777121 </v>
   <v>       0.39206100       0.69478211       0.47853795 </v>
   <v>       0.47412938       0.59999745       0.45542768 </v>
   <v>       0.28109200       0.52268873       0.48488374 </v>
   <v>       0.30235848       0.39789777       0.49279149 </v>
   <v>       0.39798320       0.47809284       0.45586766 </v>
   <v>       0.71258166       0.48235386       0.51583617 </v>
   <v>       0.68906814       0.60659518       0.50061463 </v>
   <v>       0.59537481       0.52360075       0.47323606 </v>
   <v>       0.05513551       0.51451574       0.43932010 </v>
   <v>       0.48436560       0.06320681       0.45033473 </v>
   <v>       0.87554233       0.70529941       0.36816996 </v>
   <v>       0.87694547       0.65454607       0.39278315 </v>
   <v>       0.84748368       0.68858388       0.43702874 </v>
   <v>       0.98849475       0.31788018       0.36666587 </v>
   <v>       0.97734884       0.34703188       0.43753285 </v>
   <v>       0.01552363       0.36225302       0.38302577 </v>
   <v>       0.31966800       0.00713815       0.38138174 </v>
   <v>       0.34942601       0.02029227       0.45056535 </v>
   <v>       0.36446304       0.98109321       0.39841964 </v>
   <v>       0.70903135       0.12242365       0.35179797 </v>
   <v>       0.65859403       0.12253025       0.37792357 </v>
   <v>       0.69421030       0.15127188       0.42077996 </v>
   <v>       0.49494276       0.22804209       0.46710200 </v>
   <v>       0.39482233       0.75493012       0.42864405 </v>
   <v>       0.22327438       0.50218706       0.44215791 </v>
   <v>       0.74778643       0.60616922       0.45135019 </v>
   <v>       0.83432828       0.86714799       0.39190464 </v>
   <v>       0.88007360       0.84146976       0.40020893 </v>
   <v>       0.84113488       0.83159955       0.45622261 </v>
   <v>       0.16345019       0.11990841       0.37627680 </v>
   <v>       0.11866303       0.14725169       0.38450266 </v>
   <v>       0.15932662       0.15797719       0.43675127 </v>
   <v>       0.12810395       0.82722642       0.40836476 </v>
   <v>       0.15474568       0.87270150       0.41185247 </v>
   <v>       0.16360940       0.83559346       0.47206362 </v>
   <v>       0.87322213       0.15954990       0.37177372 </v>
   <v>       0.84668344       0.11429771       0.38170934 </v>
   <v>       0.83641229       0.15469111       0.43445233 </v>
   <v>       0.60235890       0.47024680       0.39722476 </v>
   <v>       0.39527652       0.52961655       0.37547201 </v>
   <v>       0.46844260       0.39568022       0.39004155 </v>
   <v>       0.52892355       0.60426837       0.38343460 </v>
   <v>       0.95031621       0.46254988       0.63981350 </v>
   <v>       0.92506046       0.50791511       0.62439438 </v>
   <v>       0.91225264       0.46463559       0.57976174 </v>
   <v>       0.53958631       0.95045836       0.63491585 </v>
   <v>       0.49404569       0.92556919       0.61863551 </v>
   <v>       0.53658486       0.91503225       0.57049433 </v>
   <v>       0.00439580       0.72370180       0.54307920 </v>
   <v>       0.10276248       0.24674358       0.53601638 </v>
   <v>       0.25129828       0.89605039       0.56051454 </v>
   <v>       0.72553304       0.99384692       0.52760267 </v>
   <v>       0.63016898       0.21382836       0.63003097 </v>
   <v>       0.62781834       0.16266689       0.60840107 </v>
   <v>       0.65516964       0.19616248       0.55865020 </v>
   <v>       0.49824552       0.81174738       0.62960462 </v>
   <v>       0.51557235       0.84505561       0.56837637 </v>
   <v>       0.47356784       0.85766993       0.61628611 </v>
   <v>       0.20877642       0.37086369       0.61483680 </v>
   <v>       0.15726054       0.37412937       0.59607068 </v>
   <v>       0.18862629       0.34499334       0.54607152 </v>
   <v>       0.81013273       0.49997107       0.64251121 </v>
   <v>       0.84155586       0.48340856       0.57799194 </v>
   <v>       0.85574662       0.52480342       0.62639893 </v>
   <v>       0.89449046       0.96712260       0.59832417 </v>
   <v>       0.10313400       0.03033431       0.59638726 </v>
   <v>       0.02913170       0.89755085       0.60651291 </v>
   <v>       0.96820650       0.10207390       0.58694827 </v>
   <v>       0.66027244       0.37873994       0.61644322 </v>
   <v>       0.61535459       0.35159841       0.60717591 </v>
   <v>       0.65599714       0.34099881       0.55520562 </v>
   <v>       0.32553812       0.62798341       0.57476792 </v>
   <v>       0.37095842       0.65467681       0.57168699 </v>
   <v>       0.33383109       0.66393047       0.51168100 </v>
   <v>       0.36915171       0.33636683       0.59811197 </v>
   <v>       0.34271437       0.38153938       0.58771124 </v>
   <v>       0.33348836       0.34150877       0.53357739 </v>
   <v>       0.61784562       0.66900576       0.60046555 </v>
   <v>       0.64548887       0.62426140       0.59522822 </v>
   <v>       0.65602014       0.66380089       0.54042557 </v>
   <v>       0.92036942       0.62563822       0.50115790 </v>
   <v>       0.88078710       0.61531077       0.50876962 </v>
   <v>       0.86914219       0.57595046       0.51616856 </v>
   <v>       0.89811805       0.54668600       0.51669810 </v>
   <v>       0.93817365       0.55642738       0.51166371 </v>
   <v>       0.94895158       0.59598576       0.50369735 </v>
   <v>       0.07327168       0.37040991       0.48463853 </v>
   <v>       0.11331578       0.38062382       0.48592264 </v>
   <v>       0.12551651       0.41969078       0.49284003 </v>
   <v>       0.09691504       0.44938704       0.49574649 </v>
   <v>       0.05693316       0.43979174       0.49599979 </v>
   <v>       0.04526447       0.40025257       0.49143644 </v>
   <v>       0.37408747       0.92574122       0.50254757 </v>
   <v>       0.38461118       0.88587711       0.50328681 </v>
   <v>       0.42399864       0.87417661       0.50673507 </v>
   <v>       0.45333121       0.90318885       0.50966267 </v>
   <v>       0.44356795       0.94327408       0.51048243 </v>
   <v>       0.40380454       0.95419912       0.50663306 </v>
   <v>       0.62928551       0.07985081       0.48818503 </v>
   <v>       0.61926606       0.11967684       0.49535999 </v>
   <v>       0.58027227       0.13137690       0.50609907 </v>
   <v>       0.55075759       0.10252485       0.50767036 </v>
   <v>       0.56028350       0.06260336       0.50264408 </v>
   <v>       0.59958800       0.05139941       0.49401314 </v>
   <v>       0.93394666       0.85352125       0.51134963 </v>
   <v>       0.97265498       0.86696029       0.52024704 </v>
   <v>       0.00490753       0.84165618       0.51583647 </v>
   <v>       0.99842506       0.80158927       0.50366088 </v>
   <v>       0.95998236       0.78718308       0.49714307 </v>
   <v>       0.92795372       0.81335768       0.49976850 </v>
   <v>       0.06499259       0.13967895       0.49398714 </v>
   <v>       0.02587310       0.12689459       0.49834540 </v>
   <v>       0.99424416       0.15283011       0.49065592 </v>
   <v>       0.00185737       0.19282319       0.47961613 </v>
   <v>       0.04078047       0.20660363       0.47876808 </v>
   <v>       0.07211847       0.17977972       0.48438194 </v>
   <v>       0.14297395       0.93165183       0.51419541 </v>
   <v>       0.13003285       0.97078325       0.51473153 </v>
   <v>       0.15592276       0.00234519       0.50534545 </v>
   <v>       0.19600240       0.99474616       0.49595957 </v>
   <v>       0.20994474       0.95594812       0.49877538 </v>
   <v>       0.18324422       0.92459182       0.50666818 </v>
   <v>       0.85644942       0.06193419       0.49428724 </v>
   <v>       0.86924630       0.02311976       0.50432823 </v>
   <v>       0.84350304       0.99110178       0.50011119 </v>
   <v>       0.80358538       0.99800897       0.48732416 </v>
   <v>       0.78980652       0.03664785       0.47995952 </v>
   <v>       0.81648625       0.06833465       0.48202822 </v>
   <v>       0.56335996       0.35925539       0.49384594 </v>
   <v>       0.52444737       0.37165486       0.48391664 </v>
   <v>       0.49271777       0.34564880       0.48912262 </v>
   <v>       0.50001576       0.30593157       0.50292633 </v>
   <v>       0.53878769       0.29252596       0.50997470 </v>
   <v>       0.57021390       0.31945517       0.50687228 </v>
   <v>       0.42934141       0.64375945       0.46705421 </v>
   <v>       0.46854167       0.63110233       0.46431574 </v>
   <v>       0.49999908       0.65691867       0.47510356 </v>
   <v>       0.49222119       0.69658301       0.48843370 </v>
   <v>       0.45337907       0.71029940       0.48767841 </v>
   <v>       0.42210947       0.68378764       0.47777395 </v>
   <v>       0.35407533       0.43411719       0.47501438 </v>
   <v>       0.36680959       0.47297632       0.46486790 </v>
   <v>       0.34093159       0.50480752       0.46844190 </v>
   <v>       0.30101549       0.49770753       0.48087098 </v>
   <v>       0.28730696       0.45904390       0.48838781 </v>
   <v>       0.31405535       0.42748516       0.48668696 </v>
   <v>       0.63869072       0.56875705       0.48712224 </v>
[...]
      </set>
     </set>
    </array>
   </total>
  </dos>
 </calculation>
 <structure name="finalpos" >
  <crystal>
   <varray name="basis" >
    <v>      34.02076615       0.05506961       0.00000000 </v>
    <v>      -0.10456159      34.00474476       0.00000000 </v>
    <v>       0.00000000       0.00000000      20.00000000 </v>
   </varray>
   <i name="volume">  23137.46455273 </i>
   <varray name="rec_basis" >
    <v>       0.02939367       0.00009038       0.00000000 </v>
    <v>      -0.00004760       0.02940751       0.00000000 </v>
    <v>       0.00000000       0.00000000       0.05000000 </v>
   </varray>
  </crystal>
  <varray name="positions" >
   <v>       0.00112368       0.53388839       0.47365564 </v>
   <v>       0.46538900       0.00791285       0.47933492 </v>
   <v>       0.91973536       0.73334785       0.45687829 </v>
   <v>       0.02362207       0.27323533       0.44491304 </v>
   <v>       0.27605417       0.97318503       0.46296372 </v>
   <v>       0.73668522       0.07797908       0.44036740 </v>
   <v>       0.53403577       0.18328846       0.48766656 </v>
   <v>       0.40853747       0.80996003       0.46565965 </v>
   <v>       0.17795633       0.46456818       0.46757301 </v>
   <v>       0.80372124       0.59221693       0.48334509 </v>
   <v>       0.84971321       0.92162414       0.46952408 </v>
   <v>       0.14979869       0.07001631       0.46386952 </v>
   <v>       0.07420485       0.84603308       0.48479185 </v>
   <v>       0.92548906       0.14617065       0.45477772 </v>
   <v>       0.58657043       0.41699230       0.43968727 </v>
   <v>       0.40870310       0.58437749       0.41464914 </v>
   <v>       0.41363015       0.41103892       0.42665785 </v>
   <v>       0.58166019       0.58998094       0.42900298 </v>
   <v>       0.99583397       0.46320545       0.54272711 </v>
   <v>       0.53735353       0.99980043       0.54339310 </v>
   <v>       0.96644067       0.67806557       0.52089158 </v>
   <v>       0.08884871       0.30381760       0.51054865 </v>
   <v>       0.30796322       0.91016470       0.53266418 </v>
   <v>       0.68083024       0.03292305       0.50636804 </v>
   <v>       0.58145953       0.23984364       0.54712017 </v>
   <v>       0.46925180       0.77388191       0.53549770 </v>
   <v>       0.23431378       0.41774811       0.52872791 </v>
   <v>       0.76990042       0.52967522       0.55195874 </v>
   <v>       0.91031702       0.91261418       0.56084176 </v>
   <v>       0.08752324       0.08275659       0.55103518 </v>
   <v>       0.08360003       0.91123605       0.56663605 </v>
   <v>       0.91464985       0.08574921       0.54631647 </v>
   <v>       0.64644677       0.42979762       0.53147152 </v>
   <v>       0.34468205       0.57430166       0.49865788 </v>
   <v>       0.42318996       0.35115222       0.51946202 </v>
   <v>       0.56780543       0.65244865       0.51506587 </v>
   <v>       0.88940731       0.51591083       0.51796091 </v>
   <v>       0.97989679       0.60369901       0.49881934 </v>
   <v>       0.85802532       0.63774269       0.50913620 </v>
   <v>       0.10651793       0.47987301       0.50029797 </v>
   <v>       0.01403877       0.39348467       0.49481568 </v>
   <v>       0.13475697       0.35707863       0.48123498 </v>
   <v>       0.48409001       0.89452606       0.50835364 </v>
   <v>       0.39682917       0.98541307       0.50774739 </v>
   <v>       0.36167393       0.86357535       0.50079060 </v>
   <v>       0.52040152       0.11178776       0.51503504 </v>
   <v>       0.60721797       0.02032594       0.49152384 </v>
   <v>       0.64222597       0.14190318       0.49273826 </v>
   <v>       0.02370394       0.78210095       0.49902326 </v>
   <v>       0.89853645       0.80112236       0.49446670 </v>
   <v>       0.97729744       0.89824692       0.52897555 </v>
   <v>       0.97770136       0.21359590       0.47408852 </v>
   <v>       0.10225330       0.19058505       0.48224193 </v>
   <v>       0.02029195       0.09572223       0.50677636 </v>
   <v>       0.21670810       0.01884962       0.48854899 </v>
   <v>       0.19429257       0.89456116       0.50756496 </v>
   <v>       0.09872948       0.97632860       0.52128334 </v>
   <v>       0.78364922       0.97297398       0.48329210 </v>
   <v>       0.80476796       0.09789867       0.47605858 </v>
   <v>       0.90034270       0.01814365       0.51422159 </v>
   <v>       0.47514514       0.28586993       0.50777504 </v>
   <v>       0.59990583       0.30804518       0.51256794 </v>
   <v>       0.51915974       0.40263096       0.47332950 </v>
   <v>       0.51627395       0.71706422       0.49777121 </v>
   <v>       0.39206100       0.69478211       0.47853795 </v>
   <v>       0.47412938       0.59999745       0.45542768 </v>
   <v>       0.28109200       0.52268873       0.48488374 </v>
   <v>       0.30235848       0.39789777       0.49279149 </v>
   <v>       0.39798320       0.47809284       0.45586766 </v>
   <v>       0.71258166       0.48235386       0.51583617 </v>
   <v>       0.68906814       0.60659518       0.50061463 </v>
   <v>       0.59537481       0.52360075       0.47323606 </v>
   <v>       0.05513551       0.51451574       0.43932010 </v>
   <v>       0.48436560       0.06320681       0.45033473 </v>
   <v>       0.87554233       0.70529941       0.36816996 </v>
   <v>       0.87694547       0.65454607       0.39278315 </v>
   <v>       0.84748368       0.68858388       0.43702874 </v>
   <v>       0.98849475       0.31788018       0.36666587 </v>
   <v>       0.97734884       0.34703188       0.43753285 </v>
   <v>       0.01552363       0.36225302       0.38302577 </v>
   <v>       0.31966800       0.00713815       0.38138174 </v>
   <v>       0.34942601       0.02029227       0.45056535 </v>
   <v>       0.36446304       0.98109321       0.39841964 </v>
   <v>       0.70903135       0.12242365       0.35179797 </v>
   <v>       0.65859403       0.12253025       0.37792357 </v>
   <v>       0.69421030       0.15127188       0.42077996 </v>
   <v>       0.49494276       0.22804209       0.46710200 </v>
   <v>       0.39482233       0.75493012       0.42864405 </v>
   <v>       0.22327438       0.50218706       0.44215791 </v>
   <v>       0.74778643       0.60616922       0.45135019 </v>
   <v>       0.83432828       0.86714799       0.39190464 </v>
   <v>       0.88007360       0.84146976       0.40020893 </v>
   <v>       0.84113488       0.83159955       0.45622261 </v>
   <v>       0.16345019       0.11990841       0.37627680 </v>
   <v>       0.11866303       0.14725169       0.38450266 </v>
   <v>       0.15932662       0.15797719       0.43675127 </v>
   <v>       0.12810395       0.82722642       0.40836476 </v>
   <v>       0.15474568       0.87270150       0.41185247 </v>
   <v>       0.16360940       0.83559346       0.47206362 </v>
   <v>       0.87322213       0.15954990       0.37177372 </v>
   <v>       0.84668344       0.11429771       0.38170934 </v>
   <v>       0.83641229       0.15469111       0.43445233 </v>
   <v>       0.60235890       0.47024680       0.39722476 </v>
   <v>       0.39527652       0.52961655       0.37547201 </v>
   <v>       0.46844260       0.39568022       0.39004155 </v>
   <v>       0.52892355       0.60426837       0.38343460 </v>
   <v>       0.95031621       0.46254988       0.63981350 </v>
   <v>       0.92506046       0.50791511       0.62439438 </v>
   <v>       0.91225264       0.46463559       0.57976174 </v>
   <v>       0.53958631       0.95045836       0.63491585 </v>
   <v>       0.49404569       0.92556919       0.61863551 </v>
   <v>       0.53658486       0.91503225       0.57049433 </v>
   <v>       0.00439580       0.72370180       0.54307920 </v>
   <v>       0.10276248       0.24674358       0.53601638 </v>
   <v>       0.25129828       0.89605039       0.56051454 </v>
   <v>       0.72553304       0.99384692       0.52760267 </v>
   <v>       0.63016898       0.21382836       0.63003097 </v>
   <v>       0.62781834       0.16266689       0.60840107 </v>
   <v>       0.65516964       0.19616248       0.55865020 </v>
   <v>       0.49824552       0.81174738       0.62960462 </v>
   <v>       0.51557235       0.84505561       0.56837637 </v>
   <v>       0.47356784       0.85766993       0.61628611 </v>
   <v>       0.20877642       0.37086369       0.61483680 </v>
   <v>       0.15726054       0.37412937       0.59607068 </v>
   <v>       0.18862629       0.34499334       0.54607152 </v>
   <v>       0.81013273       0.49997107       0.64251121 </v>
   <v>       0.84155586       0.48340856       0.57799194 </v>
   <v>       0.85574662       0.52480342       0.62639893 </v>
   <v>       0.89449046       0.96712260       0.59832417 </v>
   <v>       0.10313400       0.03033431       0.59638726 </v>
   <v>       0.02913170       0.89755085       0.60651291 </v>
   <v>       0.96820650       0.10207390       0.58694827 </v>
   <v>       0.66027244       0.37873994       0.61644322 </v>
   <v>       0.61535459       0.35159841       0.60717591 </v>
   <v>       0.65599714       0.34099881       0.55520562 </v>
   <v>       0.32553812       0.62798341       0.57476792 </v>
   <v>       0.37095842       0.65467681       0.57168699 </v>
   <v>       0.33383109       0.66393047       0.51168100 </v>
   <v>       0.36915171       0.33636683       0.59811197 </v>
   <v>       0.34271437       0.38153938       0.58771124 </v>
   <v>       0.33348836       0.34150877       0.53357739 </v>
   <v>       0.61784562       0.66900576       0.60046555 </v>
   <v>       0.64548887       0.62426140       0.59522822 </v>
   <v>       0.65602014       0.66380089       0.54042557 </v>
   <v>       0.92036942       0.62563822       0.50115790 </v>
   <v>       0.88078710       0.61531077       0.50876962 </v>
   <v>       0.86914219       0.57595046       0.51616856 </v>
   <v>       0.89811805       0.54668600       0.51669810 </v>
   <v>       0.93817365       0.55642738       0.51166371 </v>
   <v>       0.94895158       0.59598576       0.50369735 </v>
   <v>       0.07327168       0.37040991       0.48463853 </v>
   <v>       0.11331578       0.38062382       0.48592264 </v>
   <v>       0.12551651       0.41969078       0.49284003 </v>
   <v>       0.09691504       0.44938704       0.49574649 </v>
   <v>       0.05693316       0.43979174       0.49599979 </v>
   <v>       0.04526447       0.40025257       0.49143644 </v>
   <v>       0.37408747       0.92574122       0.50254757 </v>
   <v>       0.38461118       0.88587711       0.50328681 </v>
   <v>       0.42399864       0.87417661       0.50673507 </v>
   <v>       0.45333121       0.90318885       0.50966267 </v>
   <v>       0.44356795       0.94327408       0.51048243 </v>
   <v>       0.40380454       0.95419912       0.50663306 </v>
   <v>       0.62928551       0.07985081       0.48818503 </v>
   <v>       0.61926606       0.11967684       0.49535999 </v>
   <v>       0.58027227       0.13137690       0.50609907 </v>
   <v>       0.55075759       0.10252485       0.50767036 </v>
   <v>       0.56028350       0.06260336       0.50264408 </v>
   <v>       0.59958800       0.05139941       0.49401314 </v>
   <v>       0.93394666       0.85352125       0.51134963 </v>
   <v>       0.97265498       0.86696029       0.52024704 </v>
   <v>       0.00490753       0.84165618       0.51583647 </v>
   <v>       0.99842506       0.80158927       0.50366088 </v>
   <v>       0.95998236       0.78718308       0.49714307 </v>
   <v>       0.92795372       0.81335768       0.49976850 </v>
   <v>       0.06499259       0.13967895       0.49398714 </v>
   <v>       0.02587310       0.12689459       0.49834540 </v>
   <v>       0.99424416       0.15283011       0.49065592 </v>
   <v>       0.00185737       0.19282319       0.47961613 </v>
   <v>       0.04078047       0.20660363       0.47876808 </v>
   <v>       0.07211847       0.17977972       0.48438194 </v>
   <v>       0.14297395       0.93165183       0.51419541 </v>
   <v>       0.13003285       0.97078325       0.51473153 </v>
   <v>       0.15592276       0.00234519       0.50534545 </v>
   <v>       0.19600240       0.99474616       0.49595957 </v>
   <v>       0.20994474       0.95594812       0.49877538 </v>
   <v>       0.18324422       0.92459182       0.50666818 </v>
   <v>       0.85644942       0.06193419       0.49428724 </v>
   <v>       0.86924630       0.02311976       0.50432823 </v>
   <v>       0.84350304       0.99110178       0.50011119 </v>
   <v>       0.80358538       0.99800897       0.48732416 </v>
   <v>       0.78980652       0.03664785       0.47995952 </v>
   <v>       0.81648625       0.06833465       0.48202822 </v>
   <v>       0.56335996       0.35925539       0.49384594 </v>
   <v>       0.52444737       0.37165486       0.48391664 </v>
   <v>       0.49271777       0.34564880       0.48912262 </v>
   <v>       0.50001576       0.30593157       0.50292633 </v>
   <v>       0.53878769       0.29252596       0.50997470 </v>
   <v>       0.57021390       0.31945517       0.50687228 </v>
   <v>       0.42934141       0.64375945       0.46705421 </v>
   <v>       0.46854167       0.63110233       0.46431574 </v>
   <v>       0.49999908       0.65691867       0.47510356 </v>
   <v>       0.49222119       0.69658301       0.48843370 </v>
   <v>       0.45337907       0.71029940       0.48767841 </v>
   <v>       0.42210947       0.68378764       0.47777395 </v>
   <v>       0.35407533       0.43411719       0.47501438 </v>
   <v>       0.36680959       0.47297632       0.46486790 </v>
   <v>       0.34093159       0.50480752       0.46844190 </v>
   <v>       0.30101549       0.49770753       0.48087098 </v>
   <v>       0.28730696       0.45904390       0.48838781 </v>
   <v>       0.31405535       0.42748516       0.48668696 </v>
   <v>       0.63869072       0.56875705       0.48712224 </v>
   <v>       0.62632319       0.52947113       0.48319949 </v>
   <v>       0.65228955       0.49814650       0.49358853 </v>
   <v>       0.69185054       0.50625817       0.50743076 </v>
   <v>       0.70525004       0.54530860       0.50789791 </v>
   <v>       0.67848259       0.57636867       0.49888518 </v>
   <v>       0.02676585       0.47076282       0.50304593 </v>
   <v>       0.02962581       0.50722528       0.47021829 </v>
   <v>       0.52925399       0.03223238       0.50777291 </v>
   <v>       0.49215786       0.03647492       0.47764259 </v>
   <v>       0.90989370       0.69516834       0.45531606 </v>
   <v>       0.93225372       0.66723701       0.49217997 </v>
   <v>       0.87569734       0.68497344       0.41078270 </v>
   <v>       0.03019908       0.31217627       0.44536970 </v>
   <v>       0.06315412       0.32804874       0.47988718 </v>
   <v>       0.00151815       0.33640797       0.40570785 </v>
   <v>       0.31506546       0.96726050       0.46301373 </v>
   <v>       0.33157076       0.93537651       0.49947232 </v>
   <v>       0.33865650       0.99525898       0.42078569 </v>
   <v>       0.69877682       0.08874970       0.43976415 </v>
   <v>       0.67055819       0.06728390       0.47756538 </v>
   <v>       0.68920808       0.12305831       0.39506786 </v>
   <v>       0.54780094       0.25019222       0.51664379 </v>
   <v>       0.52331878       0.22084589       0.48953814 </v>
   <v>       0.44554223       0.75278733       0.49544545 </v>
   <v>       0.41459293       0.77143918       0.46138569 </v>
   <v>       0.24488818       0.45047669       0.49554902 </v>
   <v>       0.21576112       0.47462204       0.46720637 </v>
   <v>       0.74766580       0.55378270       0.51458603 </v>
   <v>       0.76521333       0.58583557       0.48152988 </v>
   <v>       0.86962687       0.88753479       0.47277129 </v>
   <v>       0.90289987       0.88418872       0.51553932 </v>
   <v>       0.85562778       0.85515061       0.42754974 </v>
   <v>       0.12940168       0.10384401       0.46145234 </v>
   <v>       0.09567174       0.10898869       0.50247282 </v>
   <v>       0.14332621       0.13393642       0.41176038 </v>
   <v>       0.10837740       0.86591881       0.48504865 </v>
   <v>       0.11195893       0.90123031       0.52271937 </v>
   <v>       0.14052821       0.84958590       0.44172178 </v>
   <v>       0.89149474       0.12589438       0.45601216 </v>
   <v>       0.88724188       0.09289019       0.49918306 </v>
   <v>       0.86022761       0.13921041       0.40810470 </v>
   <v>       0.63606778       0.45793406       0.48780526 </v>
   <v>       0.60791449       0.44969733       0.43817348 </v>
   <v>       0.35733612       0.54469859       0.45978682 </v>
   <v>       0.38768283       0.55146767       0.41340046 </v>
   <v>       0.45285516       0.36178445       0.47895479 </v>
   <v>       0.44640535       0.38994187       0.42863071 </v>
   <v>       0.54013662       0.64059568       0.47154881 </v>
   <v>       0.54896407       0.61109624       0.42457601 </v>
   <v>       0.96770201       0.49052237       0.54945673 </v>
   <v>       0.96931296       0.52593173       0.51167196 </v>
   <v>       0.93700889       0.48124039       0.60129488 </v>
   <v>       0.51010420       0.97141626       0.54831475 </v>
   <v>       0.47400356       0.97452110       0.51281890 </v>
   <v>       0.52027461       0.93867239       0.59581768 </v>
   <v>       0.95215994       0.74456957       0.49021147 </v>
   <v>       0.97660233       0.71584955       0.51912103 </v>
   <v>       0.04893568       0.24931591       0.47660798 </v>
   <v>       0.08194145       0.26537797       0.50908727 </v>
   <v>       0.25273006       0.94830801       0.49701307 </v>
   <v>       0.26943592       0.91646474       0.53165150 </v>
   <v>       0.74736880       0.04535117       0.47359251 </v>
   <v>       0.71822855       0.02175381       0.50354234 </v>
   <v>       0.59212865       0.20190068       0.54800110 </v>
   <v>       0.56908610       0.17321170       0.51415246 </v>
   <v>       0.62822511       0.19274816       0.58863193 </v>
   <v>       0.46307158       0.81266598       0.54169998 </v>
   <v>       0.43278004       0.83146395       0.50460712 </v>
   <v>       0.48883002       0.83316913       0.59191700 </v>
   <v>       0.19625160       0.40762316       0.53146419 </v>
   <v>       0.16762438       0.43043633       0.49708925 </v>
   <v>       0.18689474       0.37260135       0.57465910 </v>
   <v>       0.80873095       0.53625636       0.55593209 </v>
   <v>       0.82644603       0.56730215       0.51894103 </v>
   <v>       0.83051703       0.50988069       0.60349819 </v>
   <v>       0.86020846       0.95138461       0.50992544 </v>
   <v>       0.88877931       0.94513808       0.55962446 </v>
   <v>       0.13888975       0.04228480       0.50797029 </v>
   <v>       0.10935766       0.05052498       0.55518609 </v>
   <v>       0.04454714       0.85877273       0.52345395 </v>
   <v>       0.05099279       0.88978373       0.56871708 </v>
   <v>       0.95428904       0.13602722       0.49730797 </v>
   <v>       0.94706232       0.10751477       0.54684173 </v>
   <v>       0.62669747       0.39550805       0.53122930 </v>
   <v>       0.59394285       0.39029979       0.48788744 </v>
   <v>       0.64020491       0.36502658       0.58045465 </v>
   <v>       0.36414237       0.60871605       0.49770440 </v>
   <v>       0.39900098       0.61264274       0.45891392 </v>
   <v>       0.34783481       0.64064414       0.54156961 </v>
   <v>       0.38892640       0.37071580       0.51565400 </v>
   <v>       0.38522532       0.40354321       0.47194868 </v>
   <v>       0.35678751       0.35688418       0.56150049 </v>
   <v>       0.60211039       0.63298462       0.51749443 </v>
   <v>       0.60777736       0.59897507       0.47727743 </v>
   <v>       0.63205413       0.64821597       0.56632377 </v>
  </varray>
 </structure>
</modeling>
