<?xml version="1.0" encoding="ISO-8859-1"?>
<modeling>
 <generator>
  <i name="program" type="string">vasp </i>
  <i name="version" type="string">5.4.4.18Apr17-6-g9f103f2a35  </i>
  <i name="subversion" type="string">(build Jun 07 2020 16:50:00) complex            parallel </i>
  <i name="platform" type="string">LinuxIFC </i>
  <i name="date" type="string">2023 02 16 </i>
  <i name="time" type="string">06:57:26 </i>
 </generator>
 <incar>
  <i type="string" name="SYSTEM">Simulation for cell shape cell volume r</i>
  <i type="int" name="ISTART">     1</i>
  <i type="string" name="PREC">high</i>
  <i type="string" name="ALGO">48</i>
  <i type="int" name="ICHARG">    11</i>
  <i type="int" name="NELM">   200</i>
  <i type="int" name="IBRION">    -1</i>
  <i name="EDIFF">      0.00001000</i>
  <i name="EDIFFG">     -0.01000000</i>
  <i type="int" name="NSW">     0</i>
  <i type="int" name="ISIF">     2</i>
  <i name="ENCUT">    500.00000000</i>
  <i name="POTIM">      0.30000000</i>
  <i type="string" name="LREAL">A</i>
  <i type="int" name="ISMEAR">     0</i>
  <i name="SIGMA">      0.01000000</i>
  <i type="int" name="NWRITE">     0</i>
  <i type="logical" name="LWAVE"> F  </i>
  <i type="logical" name="LCHARG"> F  </i>
  <v type="int" name="KPOINT_BSE">    -1     0     0     0</v>
  <i type="int" name="NELM">   200</i>
  <i type="string" name="GGA">PE</i>
 </incar>
 <structure name="primitive_cell" >
  <crystal>
   <varray name="basis" >
    <v>      14.08320654      -0.15474581       0.00000000 </v>
    <v>      -0.25415486      24.92676712       0.00000000 </v>
    <v>       0.00000000       0.00000000      20.00000000 </v>
   </varray>
   <i name="volume">   7020.18960899 </i>
   <varray name="rec_basis" >
    <v>       0.07101451       0.00072407       0.00000000 </v>
    <v>       0.00044086       0.04012201       0.00000000 </v>
    <v>       0.00000000       0.00000000       0.05000000 </v>
   </varray>
  </crystal>
  <varray name="positions" >
   <v>       0.27807447      -0.44617538       0.45641363 </v>
   <v>       0.22102676      -0.46666457       0.44289570 </v>
   <v>       0.15906185      -0.46337989       0.49407343 </v>
   <v>       0.17608038      -0.44317015      -0.45166435 </v>
   <v>       0.22773522      -0.32355513       0.44546770 </v>
   <v>       0.06525406      -0.49128958       0.47900014 </v>
   <v>       0.37468673      -0.31794510       0.45260082 </v>
   <v>       0.05947870      -0.38003645       0.45026429 </v>
   <v>       0.30947589      -0.29586698       0.44528088 </v>
   <v>       0.06692047       0.45533607       0.47581920 </v>
   <v>       0.14782578      -0.29665552       0.43401752 </v>
   <v>      -0.02123438      -0.46346502       0.47394835 </v>
   <v>       0.05699704      -0.32652496       0.44523238 </v>
   <v>      -0.02248538      -0.40407001       0.46864885 </v>
   <v>      -0.01681930       0.42891187       0.47093235 </v>
   <v>       0.31199625      -0.23968367       0.43785600 </v>
   <v>      -0.40922412      -0.31357660       0.42989449 </v>
   <v>      -0.10467522      -0.49016308       0.47136936 </v>
   <v>       0.15222913      -0.24137881       0.41721164 </v>
   <v>       0.30417376       0.34085108      -0.45476310 </v>
   <v>      -0.02134232      -0.29747685       0.45266009 </v>
   <v>      -0.10368541      -0.37883020       0.48185073 </v>
   <v>      -0.10311471       0.45640120       0.47125917 </v>
   <v>       0.48125754      -0.23767038       0.45383427 </v>
   <v>       0.23345442      -0.21313569       0.42187751 </v>
   <v>       0.06706825       0.34466965       0.47329091 </v>
   <v>       0.36543189       0.33160479      -0.43380084 </v>
   <v>      -0.01595531       0.36951420       0.46519350 </v>
   <v>       0.40214916      -0.20870251       0.44824449 </v>
   <v>      -0.09884260      -0.32578779       0.47151612 </v>
   <v>      -0.34642443      -0.29320194       0.45040991 </v>
   <v>       0.06819418      -0.21011381       0.39277544 </v>
   <v>      -0.46274559       0.32883065       0.42088466 </v>
   <v>       0.22615392       0.28312806      -0.49874527 </v>
   <v>       0.03600262      -0.23029021       0.33345907 </v>
   <v>      -0.17104006       0.43452619       0.47059014 </v>
   <v>      -0.43908434      -0.20891922       0.46665093 </v>
   <v>      -0.26558341      -0.31993883       0.45092459 </v>
   <v>       0.06177105       0.29138278       0.46547118 </v>
   <v>      -0.35090510      -0.24012430       0.47385064 </v>
   <v>       0.38121718       0.27997067      -0.44882289 </v>
   <v>      -0.05450083      -0.24457046      -0.42295352 </v>
   <v>      -0.10003620       0.34490744       0.45238780 </v>
   <v>       0.39962075      -0.15517718       0.45238870 </v>
   <v>       0.15031672       0.26028412       0.47158671 </v>
   <v>       0.30558221       0.25499856      -0.49375543 </v>
   <v>      -0.18893119      -0.29599314       0.47860557 </v>
   <v>       0.48373387       0.29316204       0.31930739 </v>
   <v>       0.03717561      -0.17081770       0.42029500 </v>
   <v>      -0.01746782      -0.20817998       0.31990275 </v>
   <v>      -0.43118662       0.29011547       0.39240395 </v>
   <v>       0.44703909       0.25493094      -0.42610402 </v>
   <v>      -0.43331714      -0.15554104       0.47338506 </v>
   <v>      -0.12063913      -0.21984295      -0.44574014 </v>
   <v>      -0.01781151       0.26261671       0.45242953 </v>
   <v>      -0.09714007       0.29144714       0.44744779 </v>
   <v>       0.48386490      -0.13060110       0.46479266 </v>
   <v>      -0.46274275       0.27093577       0.33243846 </v>
   <v>      -0.27549150      -0.21715418      -0.49615932 </v>
   <v>      -0.19591425      -0.24511178      -0.49073874 </v>
   <v>       0.31213022       0.20415249       0.47544847 </v>
   <v>       0.15463165       0.20737245       0.44751859 </v>
   <v>      -0.34694552       0.25869793       0.41621017 </v>
   <v>       0.47974971       0.20231965       0.44985787 </v>
   <v>       0.23535541       0.18048003       0.44757934 </v>
   <v>      -0.26586942       0.28702524       0.42128031 </v>
   <v>      -0.13702092      -0.16824172      -0.43083432 </v>
   <v>       0.09169295       0.18721367       0.42691090 </v>
   <v>       0.32924465      -0.06532926       0.46963086 </v>
   <v>       0.40208752       0.17416581       0.46866903 </v>
   <v>      -0.18712565       0.26043831       0.43666036 </v>
   <v>       0.48342705      -0.07115613       0.46979635 </v>
   <v>      -0.19827549      -0.15920174      -0.45195161 </v>
   <v>       0.39726323      -0.04354398       0.47010198 </v>
   <v>      -0.35099190       0.20323873       0.43214295 </v>
   <v>      -0.44178999       0.17327534       0.44313537 </v>
   <v>      -0.43266061      -0.04483839       0.47433753 </v>
   <v>      -0.12390547       0.18214310       0.44978618 </v>
   <v>      -0.18927267       0.20418681       0.44305401 </v>
   <v>       0.39712970       0.12119166       0.47939620 </v>
   <v>       0.39592437       0.00989232       0.46997841 </v>
   <v>      -0.27086289       0.17638000       0.44296068 </v>
   <v>      -0.43933671       0.11979416       0.44868416 </v>
   <v>       0.47844845       0.09586661       0.46674256 </v>
   <v>      -0.43409834       0.00854707       0.47730210 </v>
   <v>       0.47950339       0.03648289       0.47231107 </v>
   <v>      -0.33997796       0.03619203       0.49220013 </v>
   <v>      -0.27829482       0.03264723       0.44086903 </v>
   <v>      -0.32252167       0.05625175      -0.45351099 </v>
   <v>      -0.22072139       0.05269064       0.45428560 </v>
  </varray>
 </structure>
 <varray name="primitive_index" >
  <v type="int" >        1 </v>
  <v type="int" >       20 </v>
  <v type="int" >       68 </v>
  <v type="int" >       19 </v>
  <v type="int" >       25 </v>
  <v type="int" >       67 </v>
  <v type="int" >        8 </v>
  <v type="int" >       27 </v>
  <v type="int" >       72 </v>
  <v type="int" >       45 </v>
  <v type="int" >       51 </v>
  <v type="int" >       65 </v>
  <v type="int" >       56 </v>
  <v type="int" >       55 </v>
  <v type="int" >       84 </v>
  <v type="int" >       69 </v>
  <v type="int" >        6 </v>
  <v type="int" >       37 </v>
  <v type="int" >       49 </v>
  <v type="int" >        9 </v>
  <v type="int" >       28 </v>
  <v type="int" >       29 </v>
  <v type="int" >       89 </v>
  <v type="int" >       31 </v>
  <v type="int" >       35 </v>
  <v type="int" >       43 </v>
  <v type="int" >       22 </v>
  <v type="int" >       76 </v>
  <v type="int" >       59 </v>
  <v type="int" >       57 </v>
  <v type="int" >       70 </v>
  <v type="int" >       52 </v>
  <v type="int" >       14 </v>
  <v type="int" >       44 </v>
  <v type="int" >       15 </v>
  <v type="int" >       11 </v>
  <v type="int" >       60 </v>
  <v type="int" >       36 </v>
  <v type="int" >       78 </v>
  <v type="int" >       62 </v>
  <v type="int" >       82 </v>
  <v type="int" >       17 </v>
  <v type="int" >       41 </v>
  <v type="int" >       30 </v>
  <v type="int" >       80 </v>
  <v type="int" >       81 </v>
  <v type="int" >       61 </v>
  <v type="int" >        4 </v>
  <v type="int" >       13 </v>
  <v type="int" >        2 </v>
  <v type="int" >       54 </v>
  <v type="int" >       21 </v>
  <v type="int" >       32 </v>
  <v type="int" >       64 </v>
  <v type="int" >       42 </v>
  <v type="int" >       77 </v>
  <v type="int" >       58 </v>
  <v type="int" >       16 </v>
  <v type="int" >       33 </v>
  <v type="int" >       63 </v>
  <v type="int" >       79 </v>
  <v type="int" >       88 </v>
  <v type="int" >       50 </v>
  <v type="int" >       39 </v>
  <v type="int" >       47 </v>
  <v type="int" >       46 </v>
  <v type="int" >       18 </v>
  <v type="int" >       10 </v>
  <v type="int" >        7 </v>
  <v type="int" >       75 </v>
  <v type="int" >       87 </v>
  <v type="int" >       66 </v>
  <v type="int" >        5 </v>
  <v type="int" >       71 </v>
  <v type="int" >       53 </v>
  <v type="int" >       74 </v>
  <v type="int" >       34 </v>
  <v type="int" >       12 </v>
  <v type="int" >       90 </v>
  <v type="int" >       40 </v>
  <v type="int" >       48 </v>
  <v type="int" >       26 </v>
  <v type="int" >       38 </v>
  <v type="int" >       73 </v>
  <v type="int" >       85 </v>
  <v type="int" >       83 </v>
  <v type="int" >       86 </v>
  <v type="int" >       24 </v>
  <v type="int" >       23 </v>
  <v type="int" >        3 </v>
 </varray>
 <kpoints>
  <generation param="listgenerated">
   <i name="divisions" type="int">      20 </i>
   <v>       0.00000000       0.00000000       0.00000000 </v>
   <v>       0.50000000      -0.50000000       0.00000000 </v>
   <v>       0.50576194      -0.48147080       0.00000000 </v>
   <v>       0.50000000       0.00000000       0.00000000 </v>
   <v>       0.49423806       0.48147080       0.00000000 </v>
   <v>       0.00000000       0.50000000       0.00000000 </v>
   <v>       0.00000000       0.00000000       0.00000000 </v>
  </generation>
  <varray name="kpointlist" >
   <v>       0.00000000       0.00000000       0.00000000 </v>
   <v>       0.02631579      -0.02631579       0.00000000 </v>
   <v>       0.05263158      -0.05263158       0.00000000 </v>
   <v>       0.07894737      -0.07894737       0.00000000 </v>
   <v>       0.10526316      -0.10526316       0.00000000 </v>
   <v>       0.13157895      -0.13157895       0.00000000 </v>
   <v>       0.15789474      -0.15789474       0.00000000 </v>
   <v>       0.18421053      -0.18421053       0.00000000 </v>
   <v>       0.21052632      -0.21052632       0.00000000 </v>
   <v>       0.23684211      -0.23684211       0.00000000 </v>
   <v>       0.26315789      -0.26315789       0.00000000 </v>
   <v>       0.28947368      -0.28947368       0.00000000 </v>
   <v>       0.31578947      -0.31578947       0.00000000 </v>
   <v>       0.34210526      -0.34210526       0.00000000 </v>
   <v>       0.36842105      -0.36842105       0.00000000 </v>
   <v>       0.39473684      -0.39473684       0.00000000 </v>
   <v>       0.42105263      -0.42105263       0.00000000 </v>
   <v>       0.44736842      -0.44736842       0.00000000 </v>
   <v>       0.47368421      -0.47368421       0.00000000 </v>
   <v>       0.50000000      -0.50000000       0.00000000 </v>
   <v>       0.50000000      -0.50000000       0.00000000 </v>
   <v>       0.50030326      -0.49902478       0.00000000 </v>
   <v>       0.50060652      -0.49804956       0.00000000 </v>
   <v>       0.50090978      -0.49707434       0.00000000 </v>
   <v>       0.50121304      -0.49609912       0.00000000 </v>
   <v>       0.50151630      -0.49512389       0.00000000 </v>
   <v>       0.50181956      -0.49414867       0.00000000 </v>
   <v>       0.50212282      -0.49317345       0.00000000 </v>
   <v>       0.50242608      -0.49219823       0.00000000 </v>
   <v>       0.50272934      -0.49122301       0.00000000 </v>
   <v>       0.50303260      -0.49024779       0.00000000 </v>
   <v>       0.50333586      -0.48927257       0.00000000 </v>
   <v>       0.50363912      -0.48829735       0.00000000 </v>
   <v>       0.50394238      -0.48732212       0.00000000 </v>
   <v>       0.50424564      -0.48634690       0.00000000 </v>
   <v>       0.50454890      -0.48537168       0.00000000 </v>
   <v>       0.50485216      -0.48439646       0.00000000 </v>
   <v>       0.50515542      -0.48342124       0.00000000 </v>
   <v>       0.50545868      -0.48244602       0.00000000 </v>
   <v>       0.50576194      -0.48147080       0.00000000 </v>
   <v>       0.50576194      -0.48147080       0.00000000 </v>
   <v>       0.50545868      -0.45613023       0.00000000 </v>
   <v>       0.50515542      -0.43078966       0.00000000 </v>
   <v>       0.50485216      -0.40544909       0.00000000 </v>
   <v>       0.50454890      -0.38010852       0.00000000 </v>
   <v>       0.50424564      -0.35476796       0.00000000 </v>
   <v>       0.50394238      -0.32942739       0.00000000 </v>
   <v>       0.50363912      -0.30408682       0.00000000 </v>
   <v>       0.50333586      -0.27874625       0.00000000 </v>
   <v>       0.50303260      -0.25340568       0.00000000 </v>
   <v>       0.50272934      -0.22806511       0.00000000 </v>
   <v>       0.50242608      -0.20272455       0.00000000 </v>
   <v>       0.50212282      -0.17738398       0.00000000 </v>
   <v>       0.50181956      -0.15204341       0.00000000 </v>
   <v>       0.50151630      -0.12670284       0.00000000 </v>
   <v>       0.50121304      -0.10136227       0.00000000 </v>
   <v>       0.50090978      -0.07602170       0.00000000 </v>
   <v>       0.50060652      -0.05068114       0.00000000 </v>
   <v>       0.50030326      -0.02534057       0.00000000 </v>
   <v>       0.50000000       0.00000000       0.00000000 </v>
   <v>       0.50000000       0.00000000       0.00000000 </v>
   <v>       0.49969674       0.02534057       0.00000000 </v>
   <v>       0.49939348       0.05068114       0.00000000 </v>
   <v>       0.49909022       0.07602170       0.00000000 </v>
   <v>       0.49878696       0.10136227       0.00000000 </v>
   <v>       0.49848370       0.12670284       0.00000000 </v>
   <v>       0.49818044       0.15204341       0.00000000 </v>
   <v>       0.49787718       0.17738398       0.00000000 </v>
   <v>       0.49757392       0.20272455       0.00000000 </v>
   <v>       0.49727066       0.22806511       0.00000000 </v>
   <v>       0.49696740       0.25340568       0.00000000 </v>
   <v>       0.49666414       0.27874625       0.00000000 </v>
   <v>       0.49636088       0.30408682       0.00000000 </v>
   <v>       0.49605762       0.32942739       0.00000000 </v>
   <v>       0.49575436       0.35476796       0.00000000 </v>
   <v>       0.49545110       0.38010852       0.00000000 </v>
   <v>       0.49514784       0.40544909       0.00000000 </v>
   <v>       0.49484458       0.43078966       0.00000000 </v>
   <v>       0.49454132       0.45613023       0.00000000 </v>
   <v>       0.49423806       0.48147080       0.00000000 </v>
   <v>       0.49423806       0.48147080       0.00000000 </v>
   <v>       0.46822553       0.48244602       0.00000000 </v>
   <v>       0.44221300       0.48342124       0.00000000 </v>
   <v>       0.41620047       0.48439646       0.00000000 </v>
   <v>       0.39018794       0.48537168       0.00000000 </v>
   <v>       0.36417541       0.48634690       0.00000000 </v>
   <v>       0.33816288       0.48732212       0.00000000 </v>
   <v>       0.31215035       0.48829735       0.00000000 </v>
   <v>       0.28613782       0.48927257       0.00000000 </v>
   <v>       0.26012529       0.49024779       0.00000000 </v>
   <v>       0.23411276       0.49122301       0.00000000 </v>
   <v>       0.20810023       0.49219823       0.00000000 </v>
   <v>       0.18208771       0.49317345       0.00000000 </v>
   <v>       0.15607518       0.49414867       0.00000000 </v>
   <v>       0.13006265       0.49512389       0.00000000 </v>
   <v>       0.10405012       0.49609912       0.00000000 </v>
   <v>       0.07803759       0.49707434       0.00000000 </v>
   <v>       0.05202506       0.49804956       0.00000000 </v>
   <v>       0.02601253       0.49902478       0.00000000 </v>
   <v>       0.00000000       0.50000000       0.00000000 </v>
   <v>       0.00000000       0.50000000       0.00000000 </v>
   <v>       0.00000000       0.47368421       0.00000000 </v>
   <v>       0.00000000       0.44736842       0.00000000 </v>
   <v>       0.00000000       0.42105263       0.00000000 </v>
   <v>       0.00000000       0.39473684       0.00000000 </v>
   <v>       0.00000000       0.36842105       0.00000000 </v>
   <v>       0.00000000       0.34210526       0.00000000 </v>
   <v>       0.00000000       0.31578947       0.00000000 </v>
   <v>       0.00000000       0.28947368       0.00000000 </v>
   <v>       0.00000000       0.26315789       0.00000000 </v>
   <v>       0.00000000       0.23684211       0.00000000 </v>
   <v>       0.00000000       0.21052632       0.00000000 </v>
   <v>       0.00000000       0.18421053       0.00000000 </v>
   <v>       0.00000000       0.15789474       0.00000000 </v>
   <v>       0.00000000       0.13157895       0.00000000 </v>
   <v>       0.00000000       0.10526316       0.00000000 </v>
   <v>       0.00000000       0.07894737       0.00000000 </v>
   <v>       0.00000000       0.05263158       0.00000000 </v>
   <v>       0.00000000       0.02631579       0.00000000 </v>
   <v>       0.00000000       0.00000000       0.00000000 </v>
  </varray>
  <varray name="weights" >
   <v>       0.00833333 </v>
   <v>       0.00833333 </v>
   <v>       0.00833333 </v>
   <v>       0.00833333 </v>
   <v>       0.00833333 </v>
   <v>       0.00833333 </v>
   <v>       0.00833333 </v>
   <v>       0.00833333 </v>
   <v>       0.00833333 </v>
   <v>       0.00833333 </v>
   <v>       0.00833333 </v>
   <v>       0.00833333 </v>
   <v>       0.00833333 </v>
   <v>       0.00833333 </v>
   <v>       0.00833333 </v>
   <v>       0.00833333 </v>
   <v>       0.00833333 </v>
   <v>       0.00833333 </v>
   <v>       0.00833333 </v>
   <v>       0.00833333 </v>
   <v>       0.00833333 </v>
   <v>       0.00833333 </v>
   <v>       0.00833333 </v>
   <v>       0.00833333 </v>
   <v>       0.00833333 </v>
   <v>       0.00833333 </v>
   <v>       0.00833333 </v>
   <v>       0.00833333 </v>
   <v>       0.00833333 </v>
   <v>       0.00833333 </v>
   <v>       0.00833333 </v>
   <v>       0.00833333 </v>
   <v>       0.00833333 </v>
   <v>       0.00833333 </v>
   <v>       0.00833333 </v>
   <v>       0.00833333 </v>
   <v>       0.00833333 </v>
   <v>       0.00833333 </v>
   <v>       0.00833333 </v>
   <v>       0.00833333 </v>
   <v>       0.00833333 </v>
   <v>       0.00833333 </v>
   <v>       0.00833333 </v>
   <v>       0.00833333 </v>
   <v>       0.00833333 </v>
   <v>       0.00833333 </v>
   <v>       0.00833333 </v>
   <v>       0.00833333 </v>
   <v>       0.00833333 </v>
   <v>       0.00833333 </v>
   <v>       0.00833333 </v>
   <v>       0.00833333 </v>
   <v>       0.00833333 </v>
   <v>       0.00833333 </v>
   <v>       0.00833333 </v>
   <v>       0.00833333 </v>
   <v>       0.00833333 </v>
   <v>       0.00833333 </v>
   <v>       0.00833333 </v>
   <v>       0.00833333 </v>
   <v>       0.00833333 </v>
   <v>       0.00833333 </v>
   <v>       0.00833333 </v>
   <v>       0.00833333 </v>
   <v>       0.00833333 </v>
   <v>       0.00833333 </v>
   <v>       0.00833333 </v>
   <v>       0.00833333 </v>
   <v>       0.00833333 </v>
   <v>       0.00833333 </v>
   <v>       0.00833333 </v>
   <v>       0.00833333 </v>
   <v>       0.00833333 </v>
   <v>       0.00833333 </v>
   <v>       0.00833333 </v>
   <v>       0.00833333 </v>
   <v>       0.00833333 </v>
   <v>       0.00833333 </v>
   <v>       0.00833333 </v>
   <v>       0.00833333 </v>
   <v>       0.00833333 </v>
   <v>       0.00833333 </v>
   <v>       0.00833333 </v>
   <v>       0.00833333 </v>
   <v>       0.00833333 </v>
   <v>       0.00833333 </v>
   <v>       0.00833333 </v>
   <v>       0.00833333 </v>
   <v>       0.00833333 </v>
   <v>       0.00833333 </v>
   <v>       0.00833333 </v>
   <v>       0.00833333 </v>
   <v>       0.00833333 </v>
   <v>       0.00833333 </v>
   <v>       0.00833333 </v>
   <v>       0.00833333 </v>
   <v>       0.00833333 </v>
   <v>       0.00833333 </v>
   <v>       0.00833333 </v>
   <v>       0.00833333 </v>
   <v>       0.00833333 </v>
   <v>       0.00833333 </v>
   <v>       0.00833333 </v>
   <v>       0.00833333 </v>
   <v>       0.00833333 </v>
   <v>       0.00833333 </v>
   <v>       0.00833333 </v>
   <v>       0.00833333 </v>
   <v>       0.00833333 </v>
   <v>       0.00833333 </v>
   <v>       0.00833333 </v>
   <v>       0.00833333 </v>
   <v>       0.00833333 </v>
   <v>       0.00833333 </v>
   <v>       0.00833333 </v>
   <v>       0.00833333 </v>
   <v>       0.00833333 </v>
   <v>       0.00833333 </v>
   <v>       0.00833333 </v>
   <v>       0.00833333 </v>
  </varray>
 </kpoints>
 <parameters>
  <separator name="general" >
   <i type="string" name="SYSTEM">Simulation for cell shape cell volume r</i>
   <i type="logical" name="LCOMPAT"> F  </i>
  </separator>
  <separator name="electronic" >
   <i type="string" name="PREC">high</i>
   <i name="ENMAX">    500.00000000</i>
   <i name="ENAUG">    644.87300000</i>
   <i name="EDIFF">      0.00001000</i>
   <i type="int" name="IALGO">    38</i>
   <i type="int" name="IWAVPR">    10</i>
   <i type="int" name="NBANDS">   240</i>
   <i name="NELECT">    372.00000000</i>
   <i type="int" name="TURBO">     0</i>
   <i type="int" name="IRESTART">     0</i>
   <i type="int" name="NREBOOT">     0</i>
   <i type="int" name="NMIN">     0</i>
   <i name="EREF">      0.00000000</i>
   <separator name="electronic smearing" >
    <i type="int" name="ISMEAR">     0</i>
    <i name="SIGMA">      0.01000000</i>
    <i name="KSPACING">      0.50000000</i>
    <i type="logical" name="KGAMMA"> T  </i>
   </separator>
   <separator name="electronic projectors" >
    <i type="logical" name="LREAL"> T  </i>
    <v name="ROPT">     -0.00040000     -0.00040000     -0.00040000     -0.00040000</v>
    <i type="int" name="LMAXPAW">  -100</i>
    <i type="int" name="LMAXMIX">     2</i>
    <i type="logical" name="NLSPLINE"> F  </i>
   </separator>
   <separator name="electronic startup" >
    <i type="int" name="ISTART">     1</i>
    <i type="int" name="ICHARG">    11</i>
    <i type="int" name="INIWAV">     1</i>
   </separator>
   <separator name="electronic spin" >
    <i type="int" name="ISPIN">     1</i>
    <i type="logical" name="LNONCOLLINEAR"> F  </i>
    <v name="MAGMOM">      1.00000000      1.00000000      1.00000000      1.00000000      1.00000000      1.00000000      1.00000000      1.00000000      1.00000000      1.00000000      1.00000000      1.00000000      1.00000000      1.00000000      1.00000000      1.00000000      1.00000000      1.00000000      1.00000000      1.00000000
      1.00000000      1.00000000      1.00000000      1.00000000      1.00000000      1.00000000      1.00000000      1.00000000      1.00000000      1.00000000      1.00000000      1.00000000      1.00000000      1.00000000      1.00000000      1.00000000      1.00000000      1.00000000      1.00000000      1.00000000
      1.00000000      1.00000000      1.00000000      1.00000000      1.00000000      1.00000000      1.00000000      1.00000000      1.00000000      1.00000000      1.00000000      1.00000000      1.00000000      1.00000000      1.00000000      1.00000000      1.00000000      1.00000000      1.00000000      1.00000000
      1.00000000      1.00000000      1.00000000      1.00000000      1.00000000      1.00000000      1.00000000      1.00000000      1.00000000      1.00000000      1.00000000      1.00000000      1.00000000      1.00000000      1.00000000      1.00000000      1.00000000      1.00000000      1.00000000      1.00000000
      1.00000000      1.00000000      1.00000000      1.00000000      1.00000000      1.00000000      1.00000000      1.00000000      1.00000000      1.00000000</v>
    <i name="NUPDOWN">     -1.00000000</i>
    <i type="logical" name="LSORBIT"> F  </i>
    <v name="SAXIS">      0.00000000      0.00000000      1.00000000</v>
    <i type="logical" name="LSPIRAL"> F  </i>
    <v name="QSPIRAL">      0.00000000      0.00000000      0.00000000</v>
    <i type="logical" name="LZEROZ"> F  </i>
   </separator>
   <separator name="electronic exchange-correlation" >
    <i type="logical" name="LASPH"> F  </i>
    <i type="logical" name="LMETAGGA"> F  </i>
   </separator>
   <separator name="electronic convergence" >
    <i type="int" name="NELM">   200</i>
    <i type="int" name="NELMDL">     0</i>
    <i type="int" name="NELMIN">     2</i>
    <i name="ENINI">    500.00000000</i>
    <separator name="electronic convergence detail" >
     <i type="logical" name="LDIAG"> T  </i>
     <i type="logical" name="LSUBROT"> F  </i>
     <i name="WEIMIN">      0.00000000</i>
     <i name="EBREAK">      0.00000001</i>
     <i name="DEPER">      0.30000000</i>
     <i type="int" name="NRMM">     4</i>
     <i name="TIME">      0.40000000</i>
    </separator>
   </separator>
   <separator name="electronic mixer" >
    <i name="AMIX">      0.40000000</i>
    <i name="BMIX">      1.00000000</i>
    <i name="AMIN">      0.10000000</i>
    <i name="AMIX_MAG">      1.60000000</i>
    <i name="BMIX_MAG">      1.00000000</i>
    <separator name="electronic mixer details" >
     <i type="int" name="IMIX">     4</i>
     <i type="logical" name="MIXFIRST"> F  </i>
     <i type="int" name="MAXMIX">   -45</i>
     <i name="WC">    100.00000000</i>
     <i type="int" name="INIMIX">     1</i>
     <i type="int" name="MIXPRE">     1</i>
     <i type="int" name="MREMOVE">     5</i>
    </separator>
   </separator>
   <separator name="electronic dipolcorrection" >
    <i type="logical" name="LDIPOL"> F  </i>
    <i type="logical" name="LMONO"> F  </i>
    <i type="int" name="IDIPOL">     0</i>
    <i name="EPSILON">      1.00000000</i>
    <v name="DIPOL">   -100.00000000   -100.00000000   -100.00000000</v>
    <i name="EFIELD">      0.00000000</i>
   </separator>
  </separator>
  <separator name="grids" >
   <i type="int" name="NGX">   108</i>
   <i type="int" name="NGY">   192</i>
   <i type="int" name="NGZ">   150</i>
   <i type="int" name="NGXF">   160</i>
   <i type="int" name="NGYF">   280</i>
   <i type="int" name="NGZF">   224</i>
   <i type="logical" name="ADDGRID"> F  </i>
  </separator>
  <separator name="ionic" >
   <i type="int" name="NSW">     0</i>
   <i type="int" name="IBRION">    -1</i>
   <i type="int" name="MDALGO">     0</i>
   <i type="int" name="ISIF">     2</i>
   <i name="PSTRESS">      0.00000000</i>
   <i name="EDIFFG">     -0.01000000</i>
   <i type="int" name="NFREE">     0</i>
   <i name="POTIM">      0.30000000</i>
   <i name="SMASS">     -3.00000000</i>
   <i name="SCALEE">      1.00000000</i>
  </separator>
  <separator name="ionic md" >
   <i name="TEBEG">      0.00010000</i>
   <i name="TEEND">      0.00010000</i>
   <i type="int" name="NBLOCK">     1</i>
   <i type="int" name="KBLOCK">     1</i>
   <i type="int" name="NPACO">   256</i>
   <i name="APACO">     16.00000000</i>
  </separator>
  <separator name="symmetry" >
   <i type="int" name="ISYM">     2</i>
   <i name="SYMPREC">      0.00001000</i>
  </separator>
  <separator name="dos" >
   <i type="int" name="LORBIT">     0</i>
   <v name="RWIGS">     -1.00000000     -1.00000000     -1.00000000     -1.00000000</v>
   <i type="int" name="NEDOS">   301</i>
   <i name="EMIN">     10.00000000</i>
   <i name="EMAX">    -10.00000000</i>
   <i name="EFERMI">      0.00000000</i>
  </separator>
  <separator name="writing" >
   <i type="int" name="NWRITE">     0</i>
   <i type="logical" name="LWAVE"> F  </i>
   <i type="logical" name="LDOWNSAMPLE"> F  </i>
   <i type="logical" name="LCHARG"> F  </i>
   <i type="logical" name="LPARD"> F  </i>
   <i type="logical" name="LVTOT"> F  </i>
   <i type="logical" name="LVHAR"> F  </i>
   <i type="logical" name="LELF"> F  </i>
   <i type="logical" name="LOPTICS"> F  </i>
   <v name="STM">      0.00000000      0.00000000      0.00000000      0.00000000      0.00000000      0.00000000      0.00000000</v>
  </separator>
  <separator name="performance" >
   <i type="int" name="NPAR">    16</i>
   <i type="int" name="NSIM">     4</i>
   <i type="int" name="NBLK">    -1</i>
   <i type="logical" name="LPLANE"> T  </i>
   <i type="logical" name="LSCALAPACK"> T  </i>
   <i type="logical" name="LSCAAWARE"> F  </i>
   <i type="logical" name="LSCALU"> F  </i>
   <i type="logical" name="LASYNC"> F  </i>
   <i type="logical" name="LORBITALREAL"> F  </i>
  </separator>
  <separator name="miscellaneous" >
   <i type="int" name="IDIOT">     3</i>
   <i type="int" name="ISPECIAL">     0</i>
   <i type="logical" name="LMUSIC"> F  </i>
   <v name="POMASS">      1.00000000     16.00000000     14.00100000     12.01100000</v>
   <v name="DARWINR">      0.00000000      0.00000000      0.00000000      0.00000000</v>
   <v name="DARWINV">      1.00000000      1.00000000      1.00000000      1.00000000</v>
   <i type="logical" name="LCORR"> T  </i>
  </separator>
  <i type="logical" name="GGA_COMPAT"> T  </i>
  <i type="logical" name="LBERRY"> F  </i>
  <i type="int" name="ICORELEVEL">     0</i>
  <i type="logical" name="LDAU"> F  </i>
  <i type="int" name="I_CONSTRAINED_M">     0</i>
  <separator name="electronic exchange-correlation" >
   <i type="string" name="GGA">PE</i>
   <i type="int" name="VOSKOWN">     0</i>
   <i type="logical" name="LHFCALC"> F  </i>
   <i type="string" name="PRECFOCK"></i>
   <i type="logical" name="LSYMGRAD"> F  </i>
   <i type="logical" name="LHFONE"> F  </i>
   <i type="logical" name="LRHFCALC"> F  </i>
   <i type="logical" name="LTHOMAS"> F  </i>
   <i type="logical" name="LMODELHF"> F  </i>
   <i name="ENCUT4O">     -1.00000000</i>
   <i type="int" name="EXXOEP">     0</i>
   <i type="int" name="FOURORBIT">     0</i>
   <i name="AEXX">      0.00000000</i>
   <i name="HFALPHA">      0.00000000</i>
   <i name="MCALPHA">      0.00000000</i>
   <i name="ALDAX">      1.00000000</i>
   <i name="AGGAX">      1.00000000</i>
   <i name="ALDAC">      1.00000000</i>
   <i name="AGGAC">      1.00000000</i>
   <i type="int" name="NKREDX">     1</i>
   <i type="int" name="NKREDY">     1</i>
   <i type="int" name="NKREDZ">     1</i>
   <i type="logical" name="SHIFTRED"> F  </i>
   <i type="logical" name="ODDONLY"> F  </i>
   <i type="logical" name="EVENONLY"> F  </i>
   <i type="int" name="LMAXFOCK">     0</i>
   <i type="int" name="NMAXFOCKAE">     0</i>
   <i type="logical" name="LFOCKAEDFT"> F  </i>
   <i name="HFSCREEN">      0.00000000</i>
   <i name="HFSCREENC">      0.00000000</i>
   <i type="int" name="NBANDSGWLOW">     0</i>
  </separator>
  <separator name="vdW DFT" >
   <i type="logical" name="LUSE_VDW"> F  </i>
   <i name="Zab_VDW">     -0.84910000</i>
   <i name="PARAM1">      0.12340000</i>
   <i name="PARAM2">      1.00000000</i>
   <i name="PARAM3">      0.00000000</i>
  </separator>
  <separator name="model GW" >
   <i type="int" name="MODEL_GW">     0</i>
   <i name="MODEL_EPS0">     46.80126406</i>
   <i name="MODEL_ALPHA">      1.00000000</i>
  </separator>
  <separator name="linear response parameters" >
   <i type="logical" name="LEPSILON"> F  </i>
   <i type="logical" name="LRPA"> F  </i>
   <i type="logical" name="LNABLA"> F  </i>
   <i type="logical" name="LVEL"> F  </i>
   <i type="int" name="KINTER">     0</i>
   <i name="CSHIFT">      0.10000000</i>
   <i name="OMEGAMAX">     -1.00000000</i>
   <i name="DEG_THRESHOLD">      0.00200000</i>
   <i name="RTIME">     -0.10000000</i>
   <i name="WPLASMAI">      0.00000000</i>
   <v name="DFIELD">      0.00000000      0.00000000      0.00000000</v>
   <v name="WPLASMA">      0.00000000      0.00000000      0.00000000      0.00000000      0.00000000      0.00000000      0.00000000      0.00000000      0.00000000</v>
  </separator>
  <separator name="orbital magnetization" >
   <i type="logical" name="NUCIND"> F  </i>
   <v name="MAGPOS">      0.00000000      0.00000000      0.00000000</v>
   <i type="logical" name="LNICSALL"> T  </i>
   <i type="logical" name="ORBITALMAG"> F  </i>
   <i type="logical" name="LMAGBLOCH"> F  </i>
   <i type="logical" name="LCHIMAG"> F  </i>
   <i type="logical" name="LGAUGE"> T  </i>
   <i type="int" name="MAGATOM">     0</i>
   <v name="MAGDIPOL">      0.00000000      0.00000000      0.00000000</v>
   <v name="AVECCONST">      0.00000000      0.00000000      0.00000000</v>
  </separator>
  <separator name="response functions" >
   <i type="logical" name="LADDER"> F  </i>
   <i type="logical" name="LRPAFORCE"> F  </i>
   <i type="logical" name="LFXC"> F  </i>
   <i type="logical" name="LHARTREE"> T  </i>
   <i type="int" name="IBSE">     0</i>
   <v type="int" name="KPOINT">    -1     0     0     0</v>
   <i type="logical" name="LTCTE"> F  </i>
   <i type="logical" name="LTETE"> F  </i>
   <i type="logical" name="LTRIPLET"> F  </i>
   <i type="logical" name="LFXCEPS"> F  </i>
   <i type="logical" name="LFXHEG"> F  </i>
   <i type="int" name="NATURALO">     2</i>
   <i type="logical" name="L2ORDER"> F  </i>
   <i type="logical" name="LMP2LT"> F  </i>
   <i type="logical" name="LUSEW"> F  </i>
   <i name="ENCUTGW">     -2.00000000</i>
   <i name="ENCUTGWSOFT">     -2.00000000</i>
   <i name="ENCUTLF">     -1.00000000</i>
   <i type="int" name="LMAXMP2">    -1</i>
   <i name="SCISSOR">      0.00000000</i>
   <i type="int" name="NOMEGA">     0</i>
   <i type="int" name="NOMEGAR">     0</i>
   <i type="int" name="NBANDSGW">    -1</i>
   <i type="int" name="NBANDSO">    -1</i>
   <i type="int" name="NBANDSV">    -1</i>
   <i type="int" name="NELM">   200</i>
   <i type="int" name="NELMHF">     1</i>
   <i type="int" name="DIM">     3</i>
   <i type="int" name="ANTIRES">     0</i>
   <i name="OMEGAMAX">    -30.00000000</i>
   <i name="OMEGAMIN">    -30.00000000</i>
   <i name="OMEGATL">   -200.00000000</i>
   <i type="int" name="OMEGAGRID">   140</i>
   <i name="CSHIFT">     -0.10000000</i>
   <i type="logical" name="SELFENERGY"> F  </i>
   <i type="logical" name="LSPECTRAL"> F  </i>
   <i type="logical" name="LSPECTRALGW"> F  </i>
   <i type="logical" name="LSINGLES"> F  </i>
   <i type="logical" name="LFERMIGW"> F  </i>
   <i type="logical" name="ODDONLYGW"> F  </i>
   <i type="logical" name="EVENONLYGW"> F  </i>
   <i type="int" name="NKREDLFX">     1</i>
   <i type="int" name="NKREDLFY">     1</i>
   <i type="int" name="NKREDLFZ">     1</i>
   <i type="int" name="MAXMEM">  2800</i>
   <i type="int" name="TELESCOPE">     0</i>
   <i type="int" name="TAUPAR">     1</i>
   <i type="int" name="OMEGAPAR">    -1</i>
   <i name="LAMBDA">      1.00000000</i>
  </separator>
  <separator name="External order field" >
   <i name="OFIELD_KAPPA">      0.00000000</i>
   <v name="OFIELD_K">      0.00000000      0.00000000      0.00000000</v>
   <i name="OFIELD_Q6_NEAR">      0.00000000</i>
   <i name="OFIELD_Q6_FAR">      0.00000000</i>
   <i name="OFIELD_A">      0.00000000</i>
  </separator>
  <separator name="solvation model" >
   <i type="logical" name="LSOL"> F  </i>
  </separator>
 </parameters>
 <atominfo>
  <atoms>      90 </atoms>
  <types>       4 </types>
  <array name="atoms" >
   <dimension dim="1">ion</dimension>
   <field type="string">element</field>
   <field type="int">atomtype</field>
   <set>
    <rc><c>H </c><c>   1</c></rc>
    <rc><c>H </c><c>   1</c></rc>
    <rc><c>H </c><c>   1</c></rc>
    <rc><c>H </c><c>   1</c></rc>
    <rc><c>H </c><c>   1</c></rc>
    <rc><c>H </c><c>   1</c></rc>
    <rc><c>H </c><c>   1</c></rc>
    <rc><c>H </c><c>   1</c></rc>
    <rc><c>H </c><c>   1</c></rc>
    <rc><c>H </c><c>   1</c></rc>
    <rc><c>H </c><c>   1</c></rc>
    <rc><c>H </c><c>   1</c></rc>
    <rc><c>O </c><c>   2</c></rc>
    <rc><c>O </c><c>   2</c></rc>
    <rc><c>O </c><c>   2</c></rc>
    <rc><c>O </c><c>   2</c></rc>
    <rc><c>O </c><c>   2</c></rc>
    <rc><c>O </c><c>   2</c></rc>
    <rc><c>O </c><c>   2</c></rc>
    <rc><c>O </c><c>   2</c></rc>
    <rc><c>O </c><c>   2</c></rc>
    <rc><c>O </c><c>   2</c></rc>
    <rc><c>O </c><c>   2</c></rc>
    <rc><c>O </c><c>   2</c></rc>
    <rc><c>N </c><c>   3</c></rc>
    <rc><c>N </c><c>   3</c></rc>
    <rc><c>N </c><c>   3</c></rc>
    <rc><c>N </c><c>   3</c></rc>
    <rc><c>N </c><c>   3</c></rc>
    <rc><c>N </c><c>   3</c></rc>
    <rc><c>N </c><c>   3</c></rc>
    <rc><c>N </c><c>   3</c></rc>
    <rc><c>N </c><c>   3</c></rc>
    <rc><c>N </c><c>   3</c></rc>
    <rc><c>N </c><c>   3</c></rc>
    <rc><c>N </c><c>   3</c></rc>
    <rc><c>N </c><c>   3</c></rc>
    <rc><c>N </c><c>   3</c></rc>
    <rc><c>N </c><c>   3</c></rc>
    <rc><c>N </c><c>   3</c></rc>
    <rc><c>N </c><c>   3</c></rc>
    <rc><c>N </c><c>   3</c></rc>
    <rc><c>N </c><c>   3</c></rc>
    <rc><c>N </c><c>   3</c></rc>
    <rc><c>N </c><c>   3</c></rc>
    <rc><c>N </c><c>   3</c></rc>
    <rc><c>N </c><c>   3</c></rc>
    <rc><c>N </c><c>   3</c></rc>
    <rc><c>C </c><c>   4</c></rc>
    <rc><c>C </c><c>   4</c></rc>
    <rc><c>C </c><c>   4</c></rc>
    <rc><c>C </c><c>   4</c></rc>
    <rc><c>C </c><c>   4</c></rc>
    <rc><c>C </c><c>   4</c></rc>
    <rc><c>C </c><c>   4</c></rc>
    <rc><c>C </c><c>   4</c></rc>
    <rc><c>C </c><c>   4</c></rc>
    <rc><c>C </c><c>   4</c></rc>
    <rc><c>C </c><c>   4</c></rc>
    <rc><c>C </c><c>   4</c></rc>
    <rc><c>C </c><c>   4</c></rc>
    <rc><c>C </c><c>   4</c></rc>
    <rc><c>C </c><c>   4</c></rc>
    <rc><c>C </c><c>   4</c></rc>
    <rc><c>C </c><c>   4</c></rc>
    <rc><c>C </c><c>   4</c></rc>
    <rc><c>C </c><c>   4</c></rc>
    <rc><c>C </c><c>   4</c></rc>
    <rc><c>C </c><c>   4</c></rc>
    <rc><c>C </c><c>   4</c></rc>
    <rc><c>C </c><c>   4</c></rc>
    <rc><c>C </c><c>   4</c></rc>
    <rc><c>C </c><c>   4</c></rc>
    <rc><c>C </c><c>   4</c></rc>
    <rc><c>C </c><c>   4</c></rc>
    <rc><c>C </c><c>   4</c></rc>
    <rc><c>C </c><c>   4</c></rc>
    <rc><c>C </c><c>   4</c></rc>
    <rc><c>C </c><c>   4</c></rc>
    <rc><c>C </c><c>   4</c></rc>
    <rc><c>C </c><c>   4</c></rc>
    <rc><c>C </c><c>   4</c></rc>
    <rc><c>C </c><c>   4</c></rc>
    <rc><c>C </c><c>   4</c></rc>
    <rc><c>C </c><c>   4</c></rc>
    <rc><c>C </c><c>   4</c></rc>
    <rc><c>C </c><c>   4</c></rc>
    <rc><c>C </c><c>   4</c></rc>
    <rc><c>C </c><c>   4</c></rc>
    <rc><c>C </c><c>   4</c></rc>
   </set>
  </array>
  <array name="atomtypes" >
   <dimension dim="1">type</dimension>
   <field type="int">atomspertype</field>
   <field type="string">element</field>
   <field>mass</field>
   <field>valence</field>
   <field type="string">pseudopotential</field>
   <set>
    <rc><c>  12</c><c>H </c><c>      1.00000000</c><c>      1.00000000</c><c>  PAW_PBE H 15Jun2001                   </c></rc>
    <rc><c>  12</c><c>O </c><c>     16.00000000</c><c>      6.00000000</c><c>  PAW_PBE O 08Apr2002                   </c></rc>
    <rc><c>  24</c><c>N </c><c>     14.00100000</c><c>      5.00000000</c><c>  PAW_PBE N 08Apr2002                   </c></rc>
    <rc><c>  42</c><c>C </c><c>     12.01100000</c><c>      4.00000000</c><c>  PAW_PBE C 08Apr2002                   </c></rc>
   </set>
  </array>
 </atominfo>
 <structure name="initialpos" >
  <crystal>
   <varray name="basis" >
    <v>      14.08320654      -0.15474581       0.00000000 </v>
    <v>      -0.25415486      24.92676712       0.00000000 </v>
    <v>       0.00000000       0.00000000      20.00000000 </v>
   </varray>
   <i name="volume">   7020.18960899 </i>
   <varray name="rec_basis" >
    <v>       0.07101451       0.00072407       0.00000000 </v>
    <v>       0.00044086       0.04012201       0.00000000 </v>
    <v>       0.00000000       0.00000000       0.05000000 </v>
   </varray>
  </crystal>
  <varray name="positions" >
   <v>       0.27807447       0.55382462       0.45641363 </v>
   <v>       0.98253218       0.79182002       0.31990275 </v>
   <v>       0.77927861       0.05269064       0.45428560 </v>
   <v>       0.48373387       0.29316204       0.31930739 </v>
   <v>       0.80172451       0.84079826       0.54804839 </v>
   <v>       0.59077588       0.68642340       0.42989449 </v>
   <v>       0.32924465       0.93467074       0.46963086 </v>
   <v>       0.37468673       0.68205490       0.45260082 </v>
   <v>       0.30417376       0.34085108       0.54523690 </v>
   <v>       0.09169295       0.18721367       0.42691090 </v>
   <v>       0.82895994       0.43452619       0.47059014 </v>
   <v>       0.87609453       0.18214310       0.44978618 </v>
   <v>       0.03717561       0.82918230       0.42029500 </v>
   <v>       0.53725441       0.32883065       0.42088466 </v>
   <v>       0.03600262       0.76970979       0.33345907 </v>
   <v>       0.53725725       0.27093577       0.33243846 </v>
   <v>       0.94549917       0.75542954       0.57704648 </v>
   <v>       0.86297908       0.83175828       0.56916568 </v>
   <v>       0.17608038       0.55682985       0.54833565 </v>
   <v>       0.22102676       0.53333543       0.44289570 </v>
   <v>       0.44703909       0.25493094       0.57389598 </v>
   <v>       0.36543189       0.33160479       0.56619916 </v>
   <v>       0.67747833       0.05625175       0.54648901 </v>
   <v>       0.72170518       0.03264723       0.44086903 </v>
   <v>       0.22773522       0.67644487       0.44546770 </v>
   <v>       0.72913711       0.17638000       0.44296068 </v>
   <v>       0.05947870       0.61996355       0.45026429 </v>
   <v>       0.97865768       0.70252315       0.45266009 </v>
   <v>       0.89631459       0.62116980       0.48185073 </v>
   <v>       0.39962075       0.84482282       0.45238870 </v>
   <v>       0.48125754       0.76232962       0.45383427 </v>
   <v>       0.56668286       0.84445896       0.47338506 </v>
   <v>       0.72450850       0.78284582       0.50384068 </v>
   <v>       0.56733939       0.95516161       0.47433753 </v>
   <v>       0.23345442       0.78686431       0.42187751 </v>
   <v>       0.73441659       0.68006117       0.45092459 </v>
   <v>       0.89532478       0.50983692       0.47136936 </v>
   <v>       0.56066329       0.11979416       0.44868416 </v>
   <v>       0.47974971       0.20231965       0.44985787 </v>
   <v>       0.39712970       0.12119166       0.47939620 </v>
   <v>       0.89996380       0.34490744       0.45238780 </v>
   <v>       0.98218849       0.26261671       0.45242953 </v>
   <v>       0.06706825       0.34466965       0.47329091 </v>
   <v>       0.22615392       0.28312806       0.50125473 </v>
   <v>       0.06692047       0.45533607       0.47581920 </v>
   <v>       0.73413058       0.28702524       0.42128031 </v>
   <v>       0.23535541       0.18048003       0.44757934 </v>
   <v>       0.39592437       0.00989232       0.46997841 </v>
   <v>       0.15222913       0.75862119       0.41721164 </v>
   <v>       0.65305448       0.25869793       0.41621017 </v>
   <v>       0.14782578       0.70334448       0.43401752 </v>
   <v>       0.06819418       0.78988619       0.39277544 </v>
   <v>       0.64900810       0.20323873       0.43214295 </v>
   <v>       0.56881338       0.29011547       0.39240395 </v>
   <v>       0.97751462       0.59592999       0.46864885 </v>
   <v>       0.05699704       0.67347504       0.44523238 </v>
   <v>       0.90115740       0.67421221       0.47151612 </v>
   <v>       0.48386490       0.86939890       0.46479266 </v>
   <v>       0.40214916       0.79129749       0.44824449 </v>
   <v>       0.56091566       0.79108078       0.46665093 </v>
   <v>       0.81106881       0.70400686       0.47860557 </v>
   <v>       0.64909490       0.75987570       0.47385064 </v>
   <v>       0.80408575       0.75488822       0.50926126 </v>
   <v>       0.87936087       0.78015705       0.55425986 </v>
   <v>       0.97876562       0.53653498       0.47394835 </v>
   <v>       0.48342705       0.92884387       0.46979635 </v>
   <v>       0.06525406       0.50871042       0.47900014 </v>
   <v>       0.15906185       0.53662011       0.49407343 </v>
   <v>       0.31199625       0.76031633       0.43785600 </v>
   <v>       0.65357557       0.70679806       0.45040991 </v>
   <v>       0.39726323       0.95645602       0.47010198 </v>
   <v>       0.30947589       0.70413302       0.44528088 </v>
   <v>       0.47844845       0.09586661       0.46674256 </v>
   <v>       0.55821001       0.17327534       0.44313537 </v>
   <v>       0.40208752       0.17416581       0.46866903 </v>
   <v>       0.98404469       0.36951420       0.46519350 </v>
   <v>       0.90285993       0.29144714       0.44744779 </v>
   <v>       0.06177105       0.29138278       0.46547118 </v>
   <v>       0.31213022       0.20415249       0.47544847 </v>
   <v>       0.15031672       0.26028412       0.47158671 </v>
   <v>       0.30558221       0.25499856       0.50624457 </v>
   <v>       0.38121718       0.27997067       0.55117711 </v>
   <v>       0.47950339       0.03648289       0.47231107 </v>
   <v>       0.98318070       0.42891187       0.47093235 </v>
   <v>       0.56590166       0.00854707       0.47730210 </v>
   <v>       0.66002204       0.03619203       0.49220013 </v>
   <v>       0.81287435       0.26043831       0.43666036 </v>
   <v>       0.15463165       0.20737245       0.44751859 </v>
   <v>       0.89688529       0.45640120       0.47125917 </v>
   <v>       0.81072733       0.20418681       0.44305401 </v>
  </varray>
 </structure>
 <calculation>
  <scstep>
   <time name="dav">  233.39  235.14</time>
   <time name="total">  233.52  235.27</time>
   <energy>
    <i name="alphaZ">     89.38696766 </i>
    <i name="ewald">  44043.71457189 </i>
    <i name="hartreedc"> -58952.03403366 </i>
    <i name="XCdc">   1436.88766799 </i>
    <i name="pawpsdc">  36137.03099581 </i>
    <i name="pawaedc"> -36222.61598891 </i>
    <i name="eentropy">     -0.00000000 </i>
    <i name="bandstr">  -5093.00597565 </i>
    <i name="atom">  17867.18447097 </i>
    <i name="e_fr_energy">   -693.45132391 </i>
    <i name="e_wo_entrp">   -693.45132391 </i>
    <i name="e_0_energy">   -693.45132391 </i>
   </energy>
  </scstep>
  <scstep>
   <time name="dav">  262.20  264.16</time>
   <time name="total">  262.21  264.18</time>
   <energy>
    <i name="e_fr_energy">   -694.73965064 </i>
    <i name="e_wo_entrp">   -694.73965064 </i>
    <i name="e_0_energy">   -694.73965064 </i>
   </energy>
  </scstep>
  <scstep>
   <time name="dav">  298.16  300.40</time>
   <time name="total">  298.18  300.41</time>
   <energy>
    <i name="e_fr_energy">   -694.77168133 </i>
    <i name="e_wo_entrp">   -694.77168133 </i>
    <i name="e_0_energy">   -694.77168133 </i>
   </energy>
  </scstep>
  <scstep>
   <time name="dav">  259.67  261.58</time>
   <time name="total">  259.69  261.60</time>
   <energy>
    <i name="e_fr_energy">   -694.77222779 </i>
    <i name="e_wo_entrp">   -694.77222779 </i>
    <i name="e_0_energy">   -694.77222779 </i>
   </energy>
  </scstep>
  <scstep>
   <time name="dav">  259.37  261.25</time>
   <time name="total">  259.39  261.27</time>
   <energy>
    <i name="e_fr_energy">   -694.77225132 </i>
    <i name="e_wo_entrp">   -694.77225132 </i>
    <i name="e_0_energy">   -694.77225132 </i>
   </energy>
  </scstep>
  <scstep>
   <time name="dav">  199.65  201.09</time>
   <time name="total">  199.67  201.11</time>
   <energy>
    <i name="alphaZ">     89.38696766 </i>
    <i name="ewald">  44043.71457189 </i>
    <i name="hartreedc"> -58952.03403366 </i>
    <i name="XCdc">   1436.88766799 </i>
    <i name="pawpsdc">  36137.03099581 </i>
    <i name="pawaedc"> -36222.61598891 </i>
    <i name="eentropy">     -0.00000000 </i>
    <i name="bandstr">  -5094.32690367 </i>
    <i name="atom">  17867.18447097 </i>
    <i name="e_fr_energy">   -694.77225193 </i>
    <i name="e_wo_entrp">   -694.77225193 </i>
    <i name="e_0_energy">   -694.77225193 </i>
   </energy>
  </scstep>
  <structure>
   <crystal>
    <varray name="basis" >
     <v>      14.08320654      -0.15474581       0.00000000 </v>
     <v>      -0.25415486      24.92676712       0.00000000 </v>
     <v>       0.00000000       0.00000000      20.00000000 </v>
    </varray>
    <i name="volume">   7020.18960899 </i>
    <varray name="rec_basis" >
     <v>       0.07101451       0.00072407       0.00000000 </v>
     <v>       0.00044086       0.04012201       0.00000000 </v>
     <v>       0.00000000       0.00000000       0.05000000 </v>
    </varray>
   </crystal>
   <varray name="positions" >
    <v>       0.27807447       0.55382462       0.45641363 </v>
    <v>       0.98253218       0.79182002       0.31990275 </v>
    <v>       0.77927861       0.05269064       0.45428560 </v>
    <v>       0.48373387       0.29316204       0.31930739 </v>
    <v>       0.80172451       0.84079826       0.54804839 </v>
    <v>       0.59077588       0.68642340       0.42989449 </v>
    <v>       0.32924465       0.93467074       0.46963086 </v>
    <v>       0.37468673       0.68205490       0.45260082 </v>
    <v>       0.30417376       0.34085108       0.54523690 </v>
    <v>       0.09169295       0.18721367       0.42691090 </v>
    <v>       0.82895994       0.43452619       0.47059014 </v>
    <v>       0.87609453       0.18214310       0.44978618 </v>
    <v>       0.03717561       0.82918230       0.42029500 </v>
    <v>       0.53725441       0.32883065       0.42088466 </v>
    <v>       0.03600262       0.76970979       0.33345907 </v>
    <v>       0.53725725       0.27093577       0.33243846 </v>
    <v>       0.94549917       0.75542954       0.57704648 </v>
    <v>       0.86297908       0.83175828       0.56916568 </v>
    <v>       0.17608038       0.55682985       0.54833565 </v>
    <v>       0.22102676       0.53333543       0.44289570 </v>
    <v>       0.44703909       0.25493094       0.57389598 </v>
    <v>       0.36543189       0.33160479       0.56619916 </v>
    <v>       0.67747833       0.05625175       0.54648901 </v>
    <v>       0.72170518       0.03264723       0.44086903 </v>
    <v>       0.22773522       0.67644487       0.44546770 </v>
    <v>       0.72913711       0.17638000       0.44296068 </v>
    <v>       0.05947870       0.61996355       0.45026429 </v>
    <v>       0.97865768       0.70252315       0.45266009 </v>
    <v>       0.89631459       0.62116980       0.48185073 </v>
    <v>       0.39962075       0.84482282       0.45238870 </v>
    <v>       0.48125754       0.76232962       0.45383427 </v>
    <v>       0.56668286       0.84445896       0.47338506 </v>
    <v>       0.72450850       0.78284582       0.50384068 </v>
    <v>       0.56733939       0.95516161       0.47433753 </v>
    <v>       0.23345442       0.78686431       0.42187751 </v>
    <v>       0.73441659       0.68006117       0.45092459 </v>
    <v>       0.89532478       0.50983692       0.47136936 </v>
    <v>       0.56066329       0.11979416       0.44868416 </v>
    <v>       0.47974971       0.20231965       0.44985787 </v>
    <v>       0.39712970       0.12119166       0.47939620 </v>
    <v>       0.89996380       0.34490744       0.45238780 </v>
    <v>       0.98218849       0.26261671       0.45242953 </v>
    <v>       0.06706825       0.34466965       0.47329091 </v>
    <v>       0.22615392       0.28312806       0.50125473 </v>
    <v>       0.06692047       0.45533607       0.47581920 </v>
    <v>       0.73413058       0.28702524       0.42128031 </v>
    <v>       0.23535541       0.18048003       0.44757934 </v>
    <v>       0.39592437       0.00989232       0.46997841 </v>
    <v>       0.15222913       0.75862119       0.41721164 </v>
    <v>       0.65305448       0.25869793       0.41621017 </v>
    <v>       0.14782578       0.70334448       0.43401752 </v>
    <v>       0.06819418       0.78988619       0.39277544 </v>
    <v>       0.64900810       0.20323873       0.43214295 </v>
    <v>       0.56881338       0.29011547       0.39240395 </v>
    <v>       0.97751462       0.59592999       0.46864885 </v>
    <v>       0.05699704       0.67347504       0.44523238 </v>
    <v>       0.90115740       0.67421221       0.47151612 </v>
    <v>       0.48386490       0.86939890       0.46479266 </v>
    <v>       0.40214916       0.79129749       0.44824449 </v>
    <v>       0.56091566       0.79108078       0.46665093 </v>
    <v>       0.81106881       0.70400686       0.47860557 </v>
    <v>       0.64909490       0.75987570       0.47385064 </v>
    <v>       0.80408575       0.75488822       0.50926126 </v>
    <v>       0.87936087       0.78015705       0.55425986 </v>
    <v>       0.97876562       0.53653498       0.47394835 </v>
    <v>       0.48342705       0.92884387       0.46979635 </v>
    <v>       0.06525406       0.50871042       0.47900014 </v>
    <v>       0.15906185       0.53662011       0.49407343 </v>
    <v>       0.31199625       0.76031633       0.43785600 </v>
    <v>       0.65357557       0.70679806       0.45040991 </v>
    <v>       0.39726323       0.95645602       0.47010198 </v>
    <v>       0.30947589       0.70413302       0.44528088 </v>
    <v>       0.47844845       0.09586661       0.46674256 </v>
    <v>       0.55821001       0.17327534       0.44313537 </v>
    <v>       0.40208752       0.17416581       0.46866903 </v>
    <v>       0.98404469       0.36951420       0.46519350 </v>
    <v>       0.90285993       0.29144714       0.44744779 </v>
    <v>       0.06177105       0.29138278       0.46547118 </v>
    <v>       0.31213022       0.20415249       0.47544847 </v>
    <v>       0.15031672       0.26028412       0.47158671 </v>
    <v>       0.30558221       0.25499856       0.50624457 </v>
    <v>       0.38121718       0.27997067       0.55117711 </v>
    <v>       0.47950339       0.03648289       0.47231107 </v>
    <v>       0.98318070       0.42891187       0.47093235 </v>
    <v>       0.56590166       0.00854707       0.47730210 </v>
    <v>       0.66002204       0.03619203       0.49220013 </v>
    <v>       0.81287435       0.26043831       0.43666036 </v>
    <v>       0.15463165       0.20737245       0.44751859 </v>
    <v>       0.89688529       0.45640120       0.47125917 </v>
    <v>       0.81072733       0.20418681       0.44305401 </v>
   </varray>
  </structure>
  <varray name="forces" >
   <v>       0.00369142      -0.00157263       0.00050508 </v>
   <v>       0.00198058      -0.00036742       0.00029049 </v>
   <v>       0.00144565       0.00039268       0.00330300 </v>
   <v>      -0.00017842       0.00015071      -0.00100248 </v>
   <v>      -0.00157373       0.00040176       0.00000189 </v>
   <v>      -0.00092792      -0.00061867      -0.00187199 </v>
   <v>      -0.00153091      -0.00255311      -0.00030605 </v>
   <v>       0.00306407      -0.00090253       0.00029030 </v>
   <v>      -0.00178033       0.00060565       0.00116174 </v>
   <v>      -0.00025212      -0.00065349      -0.00242765 </v>
   <v>      -0.00205001      -0.00208390      -0.00152044 </v>
   <v>       0.00358521      -0.00128500      -0.00007027 </v>
   <v>       0.00029280       0.00112563       0.00026681 </v>
   <v>       0.00127034      -0.00039589      -0.00150510 </v>
   <v>       0.00014399       0.00068921      -0.00289823 </v>
   <v>      -0.00118234       0.00133294      -0.00165940 </v>
   <v>       0.00183206      -0.00687006       0.00308854 </v>
   <v>       0.00230706       0.00136169       0.00013732 </v>
   <v>       0.00356083      -0.00012225      -0.00082410 </v>
   <v>       0.00200286       0.00077392       0.00638731 </v>
   <v>      -0.00216315       0.00005422      -0.00009846 </v>
   <v>      -0.00083596       0.00380723       0.00006485 </v>
   <v>       0.00032694       0.00406860       0.00572046 </v>
   <v>       0.00147639       0.00114333       0.00355131 </v>
   <v>       0.00232383      -0.00101850       0.00141459 </v>
   <v>       0.00089430      -0.00265643       0.00134322 </v>
   <v>      -0.00489042       0.00272072       0.00006140 </v>
   <v>       0.00131920       0.00728031       0.00067711 </v>
   <v>       0.00787191      -0.00089432      -0.00542543 </v>
   <v>      -0.00149920      -0.00140031       0.00128983 </v>
   <v>      -0.00071310      -0.00164151      -0.00338515 </v>
   <v>      -0.00088017      -0.00214529       0.00083837 </v>
   <v>      -0.00253135       0.00040698       0.00220724 </v>
   <v>       0.00594899       0.00385670       0.00211694 </v>
   <v>       0.00048158       0.00306202      -0.00163996 </v>
   <v>      -0.00204264      -0.00681626       0.00092583 </v>
   <v>      -0.00026385       0.00307160      -0.00045271 </v>
   <v>      -0.00427216      -0.00144559      -0.00183727 </v>
   <v>       0.00132300       0.00641557       0.00161400 </v>
   <v>       0.00351758       0.00192656      -0.00080647 </v>
   <v>       0.00297534      -0.00166518       0.00128633 </v>
   <v>       0.00086045      -0.00429107       0.00083599 </v>
   <v>      -0.00307030       0.00099061       0.00134128 </v>
   <v>      -0.00274405       0.00031347       0.00219520 </v>
   <v>      -0.00018552      -0.00372844      -0.00107057 </v>
   <v>       0.00126733       0.00109488      -0.00318527 </v>
   <v>       0.00117230      -0.00334964      -0.00050910 </v>
   <v>      -0.00013861       0.00040150      -0.00139434 </v>
   <v>       0.00266051       0.00144195       0.00129556 </v>
   <v>       0.00285791       0.00138743       0.00261919 </v>
   <v>      -0.00169470      -0.00155001       0.00144101 </v>
   <v>      -0.00626942       0.00344721      -0.00120357 </v>
   <v>      -0.00101489       0.00299110      -0.00168622 </v>
   <v>      -0.00173549       0.00085741       0.00077204 </v>
   <v>      -0.00090460       0.00148077      -0.00112813 </v>
   <v>      -0.00060299      -0.00810677      -0.00239179 </v>
   <v>      -0.00212404      -0.00423309       0.00393897 </v>
   <v>       0.00045426      -0.00135969       0.00024907 </v>
   <v>      -0.00214796       0.00497635      -0.00092020 </v>
   <v>       0.00031939       0.00918384       0.00005543 </v>
   <v>      -0.00086070       0.00065368      -0.00426223 </v>
   <v>      -0.00077163       0.00156931       0.00190106 </v>
   <v>       0.00183696       0.00065747       0.00111193 </v>
   <v>       0.00027369       0.00001432       0.00068829 </v>
   <v>      -0.00452548      -0.00072239       0.00016067 </v>
   <v>       0.00093143       0.00333030       0.00115943 </v>
   <v>      -0.00153623      -0.00090022      -0.00161248 </v>
   <v>       0.00123103      -0.00178958       0.00270483 </v>
   <v>       0.00104140      -0.00105114      -0.00182716 </v>
   <v>      -0.00312196      -0.00281333      -0.00337671 </v>
   <v>      -0.00119318      -0.00128190      -0.00099321 </v>
   <v>       0.00014239      -0.00118428      -0.00126582 </v>
   <v>      -0.00041691       0.00162667       0.00157008 </v>
   <v>       0.00314403      -0.00522634      -0.00353219 </v>
   <v>      -0.00329650      -0.00451194       0.00261050 </v>
   <v>       0.00082129       0.00043495      -0.00227371 </v>
   <v>      -0.00265395       0.00647952       0.00003772 </v>
   <v>      -0.00066907       0.00449020      -0.00229437 </v>
   <v>      -0.00067690      -0.00155056      -0.00381819 </v>
   <v>       0.00280241      -0.00011074       0.00071891 </v>
   <v>       0.00084802       0.00148591       0.00041115 </v>
   <v>       0.00467420      -0.00003216       0.00399928 </v>
   <v>      -0.00480416      -0.00120617       0.00015337 </v>
   <v>       0.00328654       0.00185176       0.00042974 </v>
   <v>      -0.00207247       0.00316223      -0.00011480 </v>
   <v>      -0.00130531       0.00087466       0.00342529 </v>
   <v>       0.00025940      -0.00191160      -0.00213368 </v>
   <v>      -0.00088535      -0.00390269      -0.00329578 </v>
   <v>      -0.00232009      -0.00348198      -0.00152688 </v>
   <v>      -0.00121058      -0.00444148      -0.00082239 </v>
  </varray>
  <varray name="stress" >
   <v>       0.02408217      -0.00337322       0.01888643 </v>
   <v>      -0.00337321       0.00999107      -0.01315594 </v>
   <v>       0.01888643      -0.01315594      -0.33546594 </v>
  </varray>
  <energy>
   <i name="e_fr_energy">   -696.93378858 </i>
   <i name="e_wo_entrp">   -696.93378858 </i>
   <i name="e_0_energy">     -0.00000000 </i>
  </energy>
  <time name="totalsc"> 1686.16 1699.35</time>
  <eigenvalues>
   <array>
    <dimension dim="1">band</dimension>
    <dimension dim="2">kpoint</dimension>
    <dimension dim="3">spin</dimension>
    <field>eigene</field>
    <field>occ</field>
    <set>
     <set comment="spin 1">
      <set comment="kpoint 1">
       <r>  -27.4604    1.0000 </r>
       <r>  -27.4553    1.0000 </r>
       <r>  -27.2470    1.0000 </r>
       <r>  -27.2418    1.0000 </r>
       <r>  -27.0788    1.0000 </r>
       <r>  -27.0787    1.0000 </r>
       <r>  -25.9416    1.0000 </r>
       <r>  -25.9369    1.0000 </r>
       <r>  -25.8186    1.0000 </r>
       <r>  -25.8113    1.0000 </r>
       <r>  -25.2250    1.0000 </r>
       <r>  -25.2176    1.0000 </r>
       <r>  -25.0481    1.0000 </r>
       <r>  -25.0438    1.0000 </r>
       <r>  -24.9883    1.0000 </r>
       <r>  -24.9858    1.0000 </r>
       <r>  -24.9754    1.0000 </r>
       <r>  -24.9746    1.0000 </r>
       <r>  -24.8573    1.0000 </r>
       <r>  -24.8314    1.0000 </r>
       <r>  -24.6600    1.0000 </r>
       <r>  -24.6257    1.0000 </r>
       <r>  -23.3379    1.0000 </r>
       <r>  -23.3339    1.0000 </r>
       <r>  -23.1260    1.0000 </r>
       <r>  -23.0471    1.0000 </r>
       <r>  -23.0241    1.0000 </r>
       <r>  -22.9661    1.0000 </r>
       <r>  -22.7449    1.0000 </r>
       <r>  -22.7147    1.0000 </r>
       <r>  -22.6757    1.0000 </r>
       <r>  -22.6502    1.0000 </r>
       <r>  -22.5432    1.0000 </r>
       <r>  -22.4807    1.0000 </r>
       <r>  -22.4212    1.0000 </r>
       <r>  -22.3991    1.0000 </r>
       <r>  -20.1810    1.0000 </r>
       <r>  -20.1783    1.0000 </r>
       <r>  -19.9676    1.0000 </r>
       <r>  -19.9588    1.0000 </r>
       <r>  -19.8823    1.0000 </r>
       <r>  -19.8466    1.0000 </r>
       <r>  -18.5302    1.0000 </r>
       <r>  -18.4868    1.0000 </r>
       <r>  -18.3809    1.0000 </r>
       <r>  -18.0801    1.0000 </r>
       <r>  -17.8743    1.0000 </r>
       <r>  -17.4269    1.0000 </r>
       <r>  -17.4040    1.0000 </r>
       <r>  -17.2845    1.0000 </r>
       <r>  -17.1325    1.0000 </r>
       <r>  -17.1284    1.0000 </r>
       <r>  -16.9801    1.0000 </r>
       <r>  -16.9700    1.0000 </r>
       <r>  -16.6229    1.0000 </r>
       <r>  -16.5262    1.0000 </r>
       <r>  -16.5143    1.0000 </r>
       <r>  -16.1038    1.0000 </r>
       <r>  -15.5798    1.0000 </r>
       <r>  -15.5071    1.0000 </r>
       <r>  -15.3568    1.0000 </r>
       <r>  -15.3429    1.0000 </r>
       <r>  -15.2176    1.0000 </r>
       <r>  -15.0546    1.0000 </r>
       <r>  -14.9588    1.0000 </r>
       <r>  -14.8696    1.0000 </r>
       <r>  -14.5785    1.0000 </r>
       <r>  -14.5422    1.0000 </r>
       <r>  -14.4731    1.0000 </r>
       <r>  -14.1904    1.0000 </r>
       <r>  -13.9373    1.0000 </r>
       <r>  -13.8911    1.0000 </r>
       <r>  -13.8514    1.0000 </r>
       <r>  -13.6707    1.0000 </r>
       <r>  -13.5892    1.0000 </r>
       <r>  -13.5873    1.0000 </r>
       <r>  -13.3349    1.0000 </r>
       <r>  -13.2557    1.0000 </r>
       <r>  -13.1311    1.0000 </r>
       <r>  -13.0625    1.0000 </r>
       <r>  -12.9842    1.0000 </r>
       <r>  -12.6462    1.0000 </r>
       <r>  -12.6111    1.0000 </r>
       <r>  -12.5622    1.0000 </r>
       <r>  -12.4066    1.0000 </r>
       <r>  -12.3294    1.0000 </r>
       <r>  -12.1152    1.0000 </r>
       <r>  -12.1120    1.0000 </r>
       <r>  -11.9961    1.0000 </r>
       <r>  -11.9551    1.0000 </r>
       <r>  -11.8491    1.0000 </r>
       <r>  -11.7842    1.0000 </r>
       <r>  -11.7752    1.0000 </r>
       <r>  -11.7647    1.0000 </r>
       <r>  -11.5683    1.0000 </r>
       <r>  -11.5066    1.0000 </r>
       <r>  -11.3517    1.0000 </r>
       <r>  -11.3417    1.0000 </r>
       <r>  -11.2532    1.0000 </r>
       <r>  -11.2453    1.0000 </r>
       <r>  -11.1485    1.0000 </r>
       <r>  -11.1217    1.0000 </r>
       <r>  -11.0462    1.0000 </r>
       <r>  -10.8923    1.0000 </r>
       <r>  -10.8544    1.0000 </r>
       <r>  -10.7992    1.0000 </r>
       <r>  -10.7316    1.0000 </r>
       <r>  -10.6604    1.0000 </r>
       <r>  -10.6353    1.0000 </r>
       <r>  -10.5863    1.0000 </r>
       <r>  -10.4936    1.0000 </r>
       <r>  -10.4728    1.0000 </r>
       <r>  -10.4600    1.0000 </r>
       <r>  -10.3664    1.0000 </r>
       <r>  -10.2423    1.0000 </r>
       <r>  -10.2183    1.0000 </r>
       <r>  -10.1669    1.0000 </r>
       <r>  -10.1466    1.0000 </r>
       <r>  -10.1129    1.0000 </r>
       <r>  -10.0490    1.0000 </r>
       <r>   -9.8388    1.0000 </r>
       <r>   -9.8022    1.0000 </r>
       <r>   -9.7872    1.0000 </r>
       <r>   -9.7851    1.0000 </r>
       <r>   -9.3312    1.0000 </r>
       <r>   -9.3095    1.0000 </r>
       <r>   -9.2745    1.0000 </r>
       <r>   -9.2715    1.0000 </r>
       <r>   -9.1970    1.0000 </r>
       <r>   -9.1353    1.0000 </r>
       <r>   -9.1214    1.0000 </r>
       <r>   -8.9662    1.0000 </r>
       <r>   -8.9462    1.0000 </r>
       <r>   -8.9273    1.0000 </r>
       <r>   -8.9039    1.0000 </r>
       <r>   -8.8969    1.0000 </r>
       <r>   -8.7887    1.0000 </r>
       <r>   -8.7861    1.0000 </r>
       <r>   -8.6490    1.0000 </r>
       <r>   -8.4498    1.0000 </r>
       <r>   -8.3343    1.0000 </r>
       <r>   -8.2998    1.0000 </r>
       <r>   -8.2823    1.0000 </r>
       <r>   -8.2404    1.0000 </r>
       <r>   -8.1438    1.0000 </r>
       <r>   -8.1405    1.0000 </r>
       <r>   -8.0671    1.0000 </r>
       <r>   -8.0152    1.0000 </r>
       <r>   -7.5210    1.0000 </r>
       <r>   -7.5142    1.0000 </r>
       <r>   -7.4675    1.0000 </r>
       <r>   -7.4636    1.0000 </r>
       <r>   -7.2726    1.0000 </r>
       <r>   -7.2626    1.0000 </r>
       <r>   -7.2017    1.0000 </r>
       <r>   -7.1892    1.0000 </r>
       <r>   -7.1600    1.0000 </r>
       <r>   -7.1598    1.0000 </r>
       <r>   -7.0936    1.0000 </r>
       <r>   -7.0755    1.0000 </r>
       <r>   -6.9515    1.0000 </r>
       <r>   -6.8595    1.0000 </r>
       <r>   -6.8551    1.0000 </r>
       <r>   -6.8411    1.0000 </r>
       <r>   -6.7330    1.0000 </r>
       <r>   -6.6548    1.0000 </r>
       <r>   -6.6258    1.0000 </r>
       <r>   -6.5863    1.0000 </r>
       <r>   -6.4191    1.0000 </r>
       <r>   -6.3765    1.0000 </r>
       <r>   -6.3240    1.0000 </r>
       <r>   -6.3145    1.0000 </r>
       <r>   -6.2471    1.0000 </r>
       <r>   -6.2114    1.0000 </r>
       <r>   -6.1581    1.0000 </r>
       <r>   -6.1477    1.0000 </r>
       <r>   -6.1214    1.0000 </r>
       <r>   -6.1021    1.0000 </r>
       <r>   -6.0223    1.0000 </r>
       <r>   -6.0109    1.0000 </r>
       <r>   -5.7383    1.0000 </r>
       <r>   -5.7350    1.0000 </r>
       <r>   -5.7082    1.0000 </r>
       <r>   -5.7015    1.0000 </r>
       <r>   -5.4367    1.0000 </r>
       <r>   -5.4332    1.0000 </r>
       <r>   -3.7705    0.0000 </r>
       <r>   -3.7380    0.0000 </r>
       <r>   -3.6737    0.0000 </r>
       <r>   -3.4869    0.0000 </r>
       <r>   -3.1780    0.0000 </r>
       <r>   -2.9246    0.0000 </r>
       <r>   -2.9238    0.0000 </r>
       <r>   -2.6506    0.0000 </r>
       <r>   -2.5069    0.0000 </r>
       <r>   -2.4582    0.0000 </r>
       <r>   -2.3767    0.0000 </r>
       <r>   -2.2916    0.0000 </r>
       <r>   -2.1914    0.0000 </r>
       <r>   -2.1414    0.0000 </r>
       <r>   -2.0168    0.0000 </r>
       <r>   -1.5786    0.0000 </r>
       <r>   -1.0021    0.0000 </r>
       <r>   -0.8748    0.0000 </r>
       <r>   -0.8509    0.0000 </r>
       <r>   -0.7855    0.0000 </r>
       <r>   -0.5900    0.0000 </r>
       <r>   -0.5284    0.0000 </r>
       <r>   -0.3647    0.0000 </r>
       <r>   -0.3129    0.0000 </r>
       <r>   -0.2006    0.0000 </r>
       <r>   -0.0122    0.0000 </r>
       <r>   -0.0110    0.0000 </r>
       <r>    0.0625    0.0000 </r>
       <r>    0.1628    0.0000 </r>
       <r>    0.2640    0.0000 </r>
       <r>    0.2684    0.0000 </r>
       <r>    0.4424    0.0000 </r>
       <r>    0.6099    0.0000 </r>
       <r>    0.6201    0.0000 </r>
       <r>    0.7154    0.0000 </r>
       <r>    0.7753    0.0000 </r>
       <r>    0.8017    0.0000 </r>
       <r>    0.8164    0.0000 </r>
       <r>    0.9000    0.0000 </r>
       <r>    0.9418    0.0000 </r>
       <r>    1.0109    0.0000 </r>
       <r>    1.0521    0.0000 </r>
       <r>    1.1240    0.0000 </r>
       <r>    1.1520    0.0000 </r>
       <r>    1.2360    0.0000 </r>
       <r>    1.2514    0.0000 </r>
       <r>    1.3146    0.0000 </r>
       <r>    1.3559    0.0000 </r>
       <r>    1.4189    0.0000 </r>
       <r>    1.4453    0.0000 </r>
       <r>    1.4676    0.0000 </r>
       <r>    1.5012    0.0000 </r>
       <r>    1.5732    0.0000 </r>
       <r>    1.6308    0.0000 </r>
      </set>
      <set comment="kpoint 2">
       <r>  -27.4604    1.0000 </r>
       <r>  -27.4553    1.0000 </r>
       <r>  -27.2470    1.0000 </r>
       <r>  -27.2418    1.0000 </r>
       <r>  -27.0788    1.0000 </r>
       <r>  -27.0787    1.0000 </r>
       <r>  -25.9416    1.0000 </r>
       <r>  -25.9369    1.0000 </r>
       <r>  -25.8186    1.0000 </r>
       <r>  -25.8114    1.0000 </r>
       <r>  -25.2250    1.0000 </r>
       <r>  -25.2176    1.0000 </r>
       <r>  -25.0481    1.0000 </r>
       <r>  -25.0438    1.0000 </r>
       <r>  -24.9883    1.0000 </r>
       <r>  -24.9858    1.0000 </r>
       <r>  -24.9753    1.0000 </r>
       <r>  -24.9745    1.0000 </r>
       <r>  -24.8574    1.0000 </r>
       <r>  -24.8316    1.0000 </r>
       <r>  -24.6600    1.0000 </r>
       <r>  -24.6259    1.0000 </r>
       <r>  -23.3375    1.0000 </r>
       <r>  -23.3335    1.0000 </r>
       <r>  -23.1262    1.0000 </r>
       <r>  -23.0472    1.0000 </r>
       <r>  -23.0247    1.0000 </r>
       <r>  -22.9665    1.0000 </r>
       <r>  -22.7448    1.0000 </r>
       <r>  -22.7147    1.0000 </r>
       <r>  -22.6754    1.0000 </r>
       <r>  -22.6499    1.0000 </r>
       <r>  -22.5431    1.0000 </r>
       <r>  -22.4810    1.0000 </r>
       <r>  -22.4211    1.0000 </r>
       <r>  -22.3992    1.0000 </r>
       <r>  -20.1807    1.0000 </r>
       <r>  -20.1780    1.0000 </r>
       <r>  -19.9681    1.0000 </r>
       <r>  -19.9592    1.0000 </r>
       <r>  -19.8823    1.0000 </r>
       <r>  -19.8467    1.0000 </r>
       <r>  -18.5291    1.0000 </r>
       <r>  -18.4859    1.0000 </r>
       <r>  -18.3804    1.0000 </r>
       <r>  -18.0810    1.0000 </r>
       <r>  -17.8741    1.0000 </r>
       <r>  -17.4269    1.0000 </r>
       <r>  -17.4060    1.0000 </r>
       <r>  -17.2874    1.0000 </r>
       <r>  -17.1312    1.0000 </r>
       <r>  -17.1284    1.0000 </r>
       <r>  -16.9809    1.0000 </r>
       <r>  -16.9710    1.0000 </r>
       <r>  -16.6218    1.0000 </r>
       <r>  -16.5249    1.0000 </r>
       <r>  -16.5108    1.0000 </r>
       <r>  -16.1034    1.0000 </r>
       <r>  -15.5797    1.0000 </r>
       <r>  -15.5078    1.0000 </r>
       <r>  -15.3567    1.0000 </r>
       <r>  -15.3442    1.0000 </r>
       <r>  -15.2173    1.0000 </r>
       <r>  -15.0558    1.0000 </r>
       <r>  -14.9585    1.0000 </r>
       <r>  -14.8695    1.0000 </r>
       <r>  -14.5786    1.0000 </r>
       <r>  -14.5434    1.0000 </r>
       <r>  -14.4712    1.0000 </r>
       <r>  -14.1904    1.0000 </r>
       <r>  -13.9392    1.0000 </r>
       <r>  -13.8895    1.0000 </r>
       <r>  -13.8528    1.0000 </r>
       <r>  -13.6719    1.0000 </r>
       <r>  -13.5888    1.0000 </r>
       <r>  -13.5878    1.0000 </r>
       <r>  -13.3343    1.0000 </r>
       <r>  -13.2543    1.0000 </r>
       <r>  -13.1297    1.0000 </r>
       <r>  -13.0630    1.0000 </r>
       <r>  -12.9830    1.0000 </r>
       <r>  -12.6467    1.0000 </r>
       <r>  -12.6110    1.0000 </r>
       <r>  -12.5622    1.0000 </r>
       <r>  -12.4068    1.0000 </r>
       <r>  -12.3294    1.0000 </r>
       <r>  -12.1152    1.0000 </r>
       <r>  -12.1120    1.0000 </r>
       <r>  -11.9953    1.0000 </r>
       <r>  -11.9552    1.0000 </r>
       <r>  -11.8491    1.0000 </r>
       <r>  -11.7851    1.0000 </r>
       <r>  -11.7751    1.0000 </r>
       <r>  -11.7644    1.0000 </r>
       <r>  -11.5686    1.0000 </r>
       <r>  -11.5072    1.0000 </r>
       <r>  -11.3514    1.0000 </r>
       <r>  -11.3416    1.0000 </r>
       <r>  -11.2528    1.0000 </r>
       <r>  -11.2453    1.0000 </r>
       <r>  -11.1482    1.0000 </r>
       <r>  -11.1217    1.0000 </r>
       <r>  -11.0462    1.0000 </r>
       <r>  -10.8927    1.0000 </r>
       <r>  -10.8538    1.0000 </r>
       <r>  -10.8036    1.0000 </r>
       <r>  -10.7322    1.0000 </r>
       <r>  -10.6613    1.0000 </r>
       <r>  -10.6319    1.0000 </r>
       <r>  -10.5862    1.0000 </r>
       <r>  -10.4934    1.0000 </r>
       <r>  -10.4727    1.0000 </r>
       <r>  -10.4589    1.0000 </r>
       <r>  -10.3663    1.0000 </r>
       <r>  -10.2423    1.0000 </r>
       <r>  -10.2184    1.0000 </r>
       <r>  -10.1666    1.0000 </r>
       <r>  -10.1466    1.0000 </r>
       <r>  -10.1127    1.0000 </r>
       <r>  -10.0499    1.0000 </r>
       <r>   -9.8394    1.0000 </r>
       <r>   -9.8023    1.0000 </r>
       <r>   -9.7873    1.0000 </r>
       <r>   -9.7851    1.0000 </r>
       <r>   -9.3311    1.0000 </r>
       <r>   -9.3095    1.0000 </r>
       <r>   -9.2742    1.0000 </r>
       <r>   -9.2712    1.0000 </r>
       <r>   -9.1963    1.0000 </r>
       <r>   -9.1351    1.0000 </r>
       <r>   -9.1213    1.0000 </r>
       <r>   -8.9662    1.0000 </r>
       <r>   -8.9462    1.0000 </r>
       <r>   -8.9283    1.0000 </r>
       <r>   -8.9032    1.0000 </r>
       <r>   -8.8969    1.0000 </r>
       <r>   -8.7889    1.0000 </r>
       <r>   -8.7862    1.0000 </r>
       <r>   -8.6490    1.0000 </r>
       <r>   -8.4511    1.0000 </r>
       <r>   -8.3343    1.0000 </r>
       <r>   -8.2996    1.0000 </r>
       <r>   -8.2818    1.0000 </r>
       <r>   -8.2403    1.0000 </r>
       <r>   -8.1437    1.0000 </r>
       <r>   -8.1405    1.0000 </r>
       <r>   -8.0670    1.0000 </r>
       <r>   -8.0151    1.0000 </r>
       <r>   -7.5210    1.0000 </r>
       <r>   -7.5143    1.0000 </r>
       <r>   -7.4677    1.0000 </r>
       <r>   -7.4637    1.0000 </r>
       <r>   -7.2727    1.0000 </r>
       <r>   -7.2627    1.0000 </r>
       <r>   -7.2016    1.0000 </r>
       <r>   -7.1893    1.0000 </r>
       <r>   -7.1599    1.0000 </r>
       <r>   -7.1597    1.0000 </r>
       <r>   -7.0936    1.0000 </r>
       <r>   -7.0755    1.0000 </r>
       <r>   -6.9511    1.0000 </r>
       <r>   -6.8594    1.0000 </r>
       <r>   -6.8560    1.0000 </r>
       <r>   -6.8405    1.0000 </r>
       <r>   -6.7325    1.0000 </r>
       <r>   -6.6553    1.0000 </r>
       <r>   -6.6254    1.0000 </r>
       <r>   -6.5863    1.0000 </r>
       <r>   -6.4192    1.0000 </r>
       <r>   -6.3767    1.0000 </r>
       <r>   -6.3244    1.0000 </r>
       <r>   -6.3145    1.0000 </r>
       <r>   -6.2472    1.0000 </r>
       <r>   -6.2115    1.0000 </r>
       <r>   -6.1580    1.0000 </r>
       <r>   -6.1481    1.0000 </r>
       <r>   -6.1207    1.0000 </r>
       <r>   -6.1018    1.0000 </r>
       <r>   -6.0224    1.0000 </r>
       <r>   -6.0109    1.0000 </r>
       <r>   -5.7384    1.0000 </r>
       <r>   -5.7352    1.0000 </r>
       <r>   -5.7080    1.0000 </r>
       <r>   -5.7014    1.0000 </r>
       <r>   -5.4367    1.0000 </r>
       <r>   -5.4332    1.0000 </r>
       <r>   -3.7702    0.0000 </r>
       <r>   -3.7376    0.0000 </r>
       <r>   -3.6731    0.0000 </r>
       <r>   -3.4873    0.0000 </r>
       <r>   -3.1783    0.0000 </r>
       <r>   -2.9253    0.0000 </r>
       <r>   -2.9235    0.0000 </r>
       <r>   -2.6553    0.0000 </r>
       <r>   -2.5076    0.0000 </r>
       <r>   -2.4581    0.0000 </r>
       <r>   -2.3755    0.0000 </r>
       <r>   -2.2899    0.0000 </r>
       <r>   -2.1916    0.0000 </r>
       <r>   -2.1371    0.0000 </r>
       <r>   -2.0173    0.0000 </r>
       <r>   -1.5787    0.0000 </r>
       <r>   -1.0030    0.0000 </r>
       <r>   -0.8757    0.0000 </r>
       <r>   -0.8498    0.0000 </r>
       <r>   -0.7860    0.0000 </r>
       <r>   -0.5899    0.0000 </r>
       <r>   -0.5289    0.0000 </r>
       <r>   -0.3647    0.0000 </r>
       <r>   -0.3125    0.0000 </r>
       <r>   -0.2005    0.0000 </r>
       <r>   -0.0123    0.0000 </r>
       <r>   -0.0111    0.0000 </r>
       <r>    0.0620    0.0000 </r>
       <r>    0.1627    0.0000 </r>
       <r>    0.2629    0.0000 </r>
       <r>    0.2686    0.0000 </r>
       <r>    0.4417    0.0000 </r>
       <r>    0.6104    0.0000 </r>
       <r>    0.6191    0.0000 </r>
       <r>    0.7139    0.0000 </r>
       <r>    0.7761    0.0000 </r>
       <r>    0.8032    0.0000 </r>
       <r>    0.8168    0.0000 </r>
       <r>    0.9013    0.0000 </r>
       <r>    0.9448    0.0000 </r>
       <r>    1.0113    0.0000 </r>
       <r>    1.0523    0.0000 </r>
       <r>    1.1233    0.0000 </r>
       <r>    1.1529    0.0000 </r>
       <r>    1.2358    0.0000 </r>
       <r>    1.2511    0.0000 </r>
       <r>    1.3158    0.0000 </r>
       <r>    1.3589    0.0000 </r>
       <r>    1.4208    0.0000 </r>
       <r>    1.4344    0.0000 </r>
       <r>    1.4868    0.0000 </r>
       <r>    1.5119    0.0000 </r>
       <r>    1.5853    0.0000 </r>
       <r>    1.6474    0.0000 </r>
      </set>
      <set comment="kpoint 3">
       <r>  -27.4604    1.0000 </r>
       <r>  -27.4553    1.0000 </r>
       <r>  -27.2470    1.0000 </r>
       <r>  -27.2418    1.0000 </r>
       <r>  -27.0788    1.0000 </r>
       <r>  -27.0787    1.0000 </r>
       <r>  -25.9415    1.0000 </r>
       <r>  -25.9369    1.0000 </r>
       <r>  -25.8186    1.0000 </r>
       <r>  -25.8116    1.0000 </r>
[...]
       <r>   -26.4608     0.0000    12.0000 </r>
       <r>   -26.3540     0.0000    12.0000 </r>
       <r>   -26.2473     0.0000    12.0000 </r>
       <r>   -26.1405     0.0000    12.0000 </r>
       <r>   -26.0338     0.0000    12.0000 </r>
       <r>   -25.9270    34.1800    15.6487 </r>
       <r>   -25.8203    16.1607    17.7252 </r>
       <r>   -25.7135     0.0000    20.0000 </r>
       <r>   -25.6068     0.0000    20.0000 </r>
       <r>   -25.5000     0.0000    20.0000 </r>
       <r>   -25.3933     0.0000    20.0000 </r>
       <r>   -25.2865     0.0000    20.0000 </r>
       <r>   -25.1798    37.4706    24.0000 </r>
       <r>   -25.0730     0.0010    24.0001 </r>
       <r>   -24.9663    85.1544    33.6070 </r>
       <r>   -24.8595    23.5671    38.5158 </r>
       <r>   -24.7528     1.4051    40.0000 </r>
       <r>   -24.6460    18.1225    41.9346 </r>
       <r>   -24.5393     0.0000    44.0000 </r>
       <r>   -24.4325     0.0000    44.0000 </r>
       <r>   -24.3258     0.0000    44.0000 </r>
       <r>   -24.2190     0.0000    44.0000 </r>
       <r>   -24.1123     0.0000    44.0000 </r>
       <r>   -24.0055     0.0000    44.0000 </r>
       <r>   -23.8988     0.0000    44.0000 </r>
       <r>   -23.7920     0.0000    44.0000 </r>
       <r>   -23.6853     0.0000    44.0000 </r>
       <r>   -23.5785     0.0000    44.0000 </r>
       <r>   -23.4718     0.0000    44.0000 </r>
       <r>   -23.3650     0.0003    44.0000 </r>
       <r>   -23.2583    18.7859    46.0054 </r>
       <r>   -23.1515    18.2107    49.9440 </r>
       <r>   -23.0448    16.6506    52.5441 </r>
       <r>   -22.9380    20.6087    56.0000 </r>
       <r>   -22.8313     0.0000    56.0000 </r>
       <r>   -22.7245    21.8655    58.3342 </r>
       <r>   -22.6178    25.3312    62.7041 </r>
       <r>   -22.5110    27.5415    66.9401 </r>
       <r>   -22.4043    29.6590    70.9994 </r>
       <r>   -22.2975     0.0000    72.0000 </r>
       <r>   -22.1908     0.0000    72.0000 </r>
       <r>   -22.0840     0.0000    72.0000 </r>
       <r>   -21.9773     0.0000    72.0000 </r>
       <r>   -21.8705     0.0000    72.0000 </r>
       <r>   -21.7638     0.0000    72.0000 </r>
       <r>   -21.6570     0.0000    72.0000 </r>
       <r>   -21.5503     0.0000    72.0000 </r>
       <r>   -21.4435     0.0000    72.0000 </r>
       <r>   -21.3368     0.0000    72.0000 </r>
       <r>   -21.2300     0.0000    72.0000 </r>
       <r>   -21.1233     0.0000    72.0000 </r>
       <r>   -21.0165     0.0000    72.0000 </r>
       <r>   -20.9098     0.0000    72.0000 </r>
       <r>   -20.8030     0.0000    72.0000 </r>
       <r>   -20.6963     0.0000    72.0000 </r>
       <r>   -20.5895     0.0000    72.0000 </r>
       <r>   -20.4828     0.0000    72.0000 </r>
       <r>   -20.3760     0.0000    72.0000 </r>
       <r>   -20.2693     0.0000    72.0000 </r>
       <r>   -20.1625    11.4068    73.2177 </r>
       <r>   -20.0558    41.9857    78.0487 </r>
       <r>   -19.9490    14.4117    79.9718 </r>
       <r>   -19.8423    36.0930    83.8529 </r>
       <r>   -19.7355     0.0000    84.0000 </r>
       <r>   -19.6288     0.0000    84.0000 </r>
       <r>   -19.5220     0.0000    84.0000 </r>
       <r>   -19.4153     0.0000    84.0000 </r>
       <r>   -19.3085     0.0000    84.0000 </r>
       <r>   -19.2018     0.0000    84.0000 </r>
       <r>   -19.0950     0.0000    84.0000 </r>
       <r>   -18.9883     0.0000    84.0000 </r>
       <r>   -18.8815     0.0000    84.0000 </r>
       <r>   -18.7748     0.0000    84.0000 </r>
       <r>   -18.6680     0.0000    84.0000 </r>
       <r>   -18.5613     0.0000    84.0000 </r>
       <r>   -18.4545    11.6214    85.2406 </r>
       <r>   -18.3478    21.7164    87.7349 </r>
       <r>   -18.2410     5.5849    89.0295 </r>
       <r>   -18.1343    23.2322    91.6467 </r>
       <r>   -18.0275     1.8735    92.0000 </r>
       <r>   -17.9208     7.3264    92.7821 </r>
       <r>   -17.8140    14.9069    94.7413 </r>
       <r>   -17.7073     2.0200    95.0323 </r>
       <r>   -17.6005     2.5306    95.3535 </r>
       <r>   -17.4938     1.0058    95.6407 </r>
       <r>   -17.3870    25.9586    98.4544 </r>
       <r>   -17.2803     3.5893    99.9832 </r>
       <r>   -17.1735     0.0822   100.0088 </r>
       <r>   -17.0668    27.0134   104.0004 </r>
       <r>   -16.9600    29.2826   107.9759 </r>
       <r>   -16.8533     0.0000   108.0000 </r>
       <r>   -16.7465     0.0000   108.0000 </r>
       <r>   -16.6398     0.0181   108.0019 </r>
       <r>   -16.5330     7.3015   109.0628 </r>
       <r>   -16.4263    25.3155   112.2858 </r>
       <r>   -16.3195     1.1479   112.4559 </r>
       <r>   -16.2128     2.7331   112.8918 </r>
       <r>   -16.1060     2.8998   113.2762 </r>
       <r>   -15.9993     2.0316   113.6502 </r>
       <r>   -15.8925    14.2045   115.2330 </r>
       <r>   -15.7858     4.5277   116.0000 </r>
       <r>   -15.6790    20.7132   118.2111 </r>
       <r>   -15.5723     5.0764   118.8752 </r>
       <r>   -15.4655    15.1369   120.7825 </r>
       <r>   -15.3588     9.1909   122.0145 </r>
       <r>   -15.2520     6.2608   124.0184 </r>
       <r>   -15.1453    21.8963   127.3541 </r>
       <r>   -15.0385     3.7386   127.9991 </r>
       <r>   -14.9318     4.2030   128.4487 </r>
       <r>   -14.8250    20.6088   132.0000 </r>
       <r>   -14.7183     0.0000   132.0000 </r>
       <r>   -14.6115    10.4005   133.1103 </r>
       <r>   -14.5047    12.0218   136.0000 </r>
       <r>   -14.3980     3.6595   136.3907 </r>
       <r>   -14.2912     7.8137   137.3008 </r>
       <r>   -14.1845    14.0472   139.6662 </r>
       <r>   -14.0777     6.8569   140.7320 </r>
       <r>   -13.9710     9.4390   141.9909 </r>
       <r>   -13.8642    17.7099   144.6905 </r>
       <r>   -13.7575     9.5227   146.2832 </r>
       <r>   -13.6507    15.3641   149.0068 </r>
       <r>   -13.5440    23.5751   152.0000 </r>
       <r>   -13.4372     0.0000   152.0000 </r>
       <r>   -13.3305     1.7640   152.1883 </r>
       <r>   -13.2237    17.6423   154.6167 </r>
       <r>   -13.1170     9.6178   155.8434 </r>
       <r>   -13.0102    12.7354   158.1928 </r>
       <r>   -12.9035    18.6812   160.3942 </r>
       <r>   -12.7967     9.1738   162.2126 </r>
       <r>   -12.6900    10.9240   163.6828 </r>
       <r>   -12.5832    14.2374   165.3365 </r>
       <r>   -12.4765     6.5574   168.0000 </r>
       <r>   -12.3697    22.9732   170.4524 </r>
       <r>   -12.2630    10.3044   172.0000 </r>
       <r>   -12.1562     0.0007   172.0001 </r>
       <r>   -12.0495    36.2210   176.0000 </r>
       <r>   -11.9427    21.1266   178.2553 </r>
       <r>   -11.8360    29.3246   181.8304 </r>
       <r>   -11.7292    48.7117   188.0000 </r>
       <r>   -11.6225     0.0068   188.0007 </r>
       <r>   -11.5157    27.3803   191.7562 </r>
       <r>   -11.4090     0.0000   192.0000 </r>
       <r>   -11.3022    34.2879   195.6602 </r>
       <r>   -11.1955    36.4886   199.8952 </r>
       <r>   -11.0887    51.6101   205.5094 </r>
       <r>   -10.9820     6.2060   207.2292 </r>
       <r>   -10.8752    18.9113   209.3688 </r>
       <r>   -10.7685    21.2644   212.4367 </r>
       <r>   -10.6617    28.3139   215.9392 </r>
       <r>   -10.5550    33.7978   219.6413 </r>
       <r>   -10.4482    29.3310   223.1311 </r>
       <r>   -10.3415    20.4080   226.6452 </r>
       <r>   -10.2347     8.2939   228.8854 </r>
       <r>   -10.1280    28.5322   235.0458 </r>
       <r>   -10.0212    29.6641   240.0000 </r>
       <r>    -9.9145     2.4609   240.2627 </r>
       <r>    -9.8077    21.0023   243.7753 </r>
       <r>    -9.7010     8.8990   248.0000 </r>
       <r>    -9.5942     0.0000   248.0000 </r>
       <r>    -9.4875     0.0000   248.0000 </r>
       <r>    -9.3807     0.0000   248.0000 </r>
       <r>    -9.2740    42.3501   252.5209 </r>
       <r>    -9.1672    18.4945   256.5743 </r>
       <r>    -9.0605    30.4601   260.8350 </r>
       <r>    -8.9537    32.8298   264.5713 </r>
       <r>    -8.8470    37.5028   272.0034 </r>
       <r>    -8.7402    29.1958   276.0000 </r>
       <r>    -8.6335    23.6506   278.5247 </r>
       <r>    -8.5267     5.2222   279.4075 </r>
       <r>    -8.4200     3.7470   280.0000 </r>
       <r>    -8.3132    19.5517   282.0872 </r>
       <r>    -8.2065    44.3260   287.9985 </r>
       <r>    -8.0997    37.4706   292.0000 </r>
       <r>    -7.9930    37.4034   295.9928 </r>
       <r>    -7.8862     0.0000   296.0000 </r>
       <r>    -7.7795     0.0000   296.0000 </r>
       <r>    -7.6727     0.0000   296.0000 </r>
       <r>    -7.5660     0.0000   296.0000 </r>
       <r>    -7.4592    72.9266   303.7849 </r>
       <r>    -7.3525     0.0000   304.0000 </r>
       <r>    -7.2457    37.4407   307.9968 </r>
       <r>    -7.1390    74.4026   315.9425 </r>
       <r>    -7.0322    37.4706   320.0000 </r>
       <r>    -6.9255     9.7604   321.0419 </r>
       <r>    -6.8187    42.8234   326.7881 </r>
       <r>    -6.7120    11.1357   329.1887 </r>
       <r>    -6.6052    29.0030   333.3294 </r>
       <r>    -6.4985    11.7104   336.0001 </r>
       <r>    -6.3917    28.0085   339.5233 </r>
       <r>    -6.2850    37.4673   343.9996 </r>
       <r>    -6.1782    37.6183   348.0158 </r>
       <r>    -6.0715    32.6094   354.8311 </r>
       <r>    -5.9647    37.4706   360.0000 </r>
       <r>    -5.8580     0.0000   360.0000 </r>
       <r>    -5.7512    16.1615   361.7253 </r>
       <r>    -5.6445    37.4706   368.0000 </r>
       <r>    -5.5377     0.0000   368.0000 </r>
       <r>    -5.4310    26.6877   370.8489 </r>
       <r>    -5.3242     0.0000   372.0000 </r>
       <r>    -5.2175     0.0000   372.0000 </r>
       <r>    -5.1107     0.0000   372.0000 </r>
       <r>    -5.0040     0.0000   372.0000 </r>
       <r>    -4.8972     0.0000   372.0000 </r>
       <r>    -4.7905     0.0000   372.0000 </r>
       <r>    -4.6837     0.0000   372.0000 </r>
       <r>    -4.5770     0.0000   372.0000 </r>
       <r>    -4.4702     0.0000   372.0000 </r>
       <r>    -4.3635     0.0000   372.0000 </r>
       <r>    -4.2567     0.0000   372.0000 </r>
       <r>    -4.1500     0.0000   372.0000 </r>
       <r>    -4.0432     0.0000   372.0000 </r>
       <r>    -3.9365     0.0000   372.0000 </r>
       <r>    -3.8297     0.0000   372.0000 </r>
       <r>    -3.7230    21.3554   374.2797 </r>
       <r>    -3.6162    16.6008   376.5221 </r>
       <r>    -3.5095    17.4292   378.8106 </r>
       <r>    -3.4027     4.3713   380.0000 </r>
       <r>    -3.2960     0.0000   380.0000 </r>
       <r>    -3.1892    22.9980   382.4550 </r>
       <r>    -3.0825     2.8144   383.0004 </r>
       <r>    -2.9757     2.5657   383.3739 </r>
       <r>    -2.8690    18.3345   385.5072 </r>
       <r>    -2.7622     1.3229   387.7079 </r>
       <r>    -2.6554     1.6445   387.9422 </r>
       <r>    -2.5487    11.4576   389.2231 </r>
       <r>    -2.4419    22.3674   391.9377 </r>
       <r>    -2.3352     4.3222   392.4614 </r>
       <r>    -2.2284    21.7164   395.1016 </r>
       <r>    -2.1217    29.7021   398.5040 </r>
       <r>    -2.0149     8.8568   400.2621 </r>
       <r>    -1.9082     0.7821   400.4502 </r>
       <r>    -1.8014     3.1603   400.8040 </r>
       <r>    -1.6947     1.8018   401.0757 </r>
       <r>    -1.5879     9.5851   402.1732 </r>
       <r>    -1.4812     5.0508   403.3558 </r>
       <r>    -1.3744     0.0000   404.0000 </r>
       <r>    -1.2677     6.0084   404.6414 </r>
       <r>    -1.1609     3.9159   405.2014 </r>
       <r>    -1.0542    10.8582   406.5091 </r>
       <r>    -0.9474     4.6217   407.1434 </r>
       <r>    -0.8407     8.9934   408.2600 </r>
       <r>    -0.7339    30.2297   411.9937 </r>
       <r>    -0.6272     0.0000   412.0000 </r>
       <r>    -0.5204    37.2683   415.9784 </r>
       <r>    -0.4137     0.0000   416.0000 </r>
       <r>    -0.3069    16.7779   417.7911 </r>
       <r>    -0.2002    17.1792   420.1839 </r>
       <r>    -0.0934    13.9708   422.9581 </r>
       <r>     0.0133    24.8479   427.0525 </r>
       <r>     0.1201     5.9357   428.0003 </r>
       <r>     0.2268    18.9626   430.6243 </r>
       <r>     0.3336    26.5356   434.5160 </r>
       <r>     0.4403     4.2766   435.9232 </r>
       <r>     0.5471     0.0000   436.0000 </r>
       <r>     0.6538    30.7837   439.2862 </r>
       <r>     0.7606    29.0860   443.5216 </r>
       <r>     0.8673    25.3483   446.8060 </r>
       <r>     0.9741     7.0449   448.5854 </r>
       <r>     1.0808    29.9065   452.0759 </r>
       <r>     1.1876    54.8590   458.9062 </r>
       <r>     1.2943    41.1438   464.3755 </r>
       <r>     1.4011    45.0173   470.7056 </r>
       <r>     1.5078    48.1883   476.7608 </r>
       <r>     1.6146    12.2779   479.7440 </r>
       <r>     1.7213     0.6245   480.0000 </r>
       <r>     1.8281     0.0000   480.0000 </r>
       <r>     1.9348     0.0000   480.0000 </r>
       <r>     2.0416     0.0000   480.0000 </r>
       <r>     2.1483     0.0000   480.0000 </r>
       <r>     2.2551     0.0000   480.0000 </r>
       <r>     2.3618     0.0000   480.0000 </r>
       <r>     2.4686     0.0000   480.0000 </r>
       <r>     2.5753     0.0000   480.0000 </r>
       <r>     2.6821     0.0000   480.0000 </r>
       <r>     2.7888     0.0000   480.0000 </r>
       <r>     2.8956     0.0000   480.0000 </r>
       <r>     3.0023     0.0000   480.0000 </r>
       <r>     3.1091     0.0000   480.0000 </r>
      </set>
     </set>
    </array>
   </total>
  </dos>
 </calculation>
 <structure name="finalpos" >
  <crystal>
   <varray name="basis" >
    <v>      14.08320654      -0.15474581       0.00000000 </v>
    <v>      -0.25415486      24.92676712       0.00000000 </v>
    <v>       0.00000000       0.00000000      20.00000000 </v>
   </varray>
   <i name="volume">   7020.18960899 </i>
   <varray name="rec_basis" >
    <v>       0.07101451       0.00072407       0.00000000 </v>
    <v>       0.00044086       0.04012201       0.00000000 </v>
    <v>       0.00000000       0.00000000       0.05000000 </v>
   </varray>
  </crystal>
  <varray name="positions" >
   <v>       0.27807447       0.55382462       0.45641363 </v>
   <v>       0.98253218       0.79182002       0.31990275 </v>
   <v>       0.77927861       0.05269064       0.45428560 </v>
   <v>       0.48373387       0.29316204       0.31930739 </v>
   <v>       0.80172451       0.84079826       0.54804839 </v>
   <v>       0.59077588       0.68642340       0.42989449 </v>
   <v>       0.32924465       0.93467074       0.46963086 </v>
   <v>       0.37468673       0.68205490       0.45260082 </v>
   <v>       0.30417376       0.34085108       0.54523690 </v>
   <v>       0.09169295       0.18721367       0.42691090 </v>
   <v>       0.82895994       0.43452619       0.47059014 </v>
   <v>       0.87609453       0.18214310       0.44978618 </v>
   <v>       0.03717561       0.82918230       0.42029500 </v>
   <v>       0.53725441       0.32883065       0.42088466 </v>
   <v>       0.03600262       0.76970979       0.33345907 </v>
   <v>       0.53725725       0.27093577       0.33243846 </v>
   <v>       0.94549917       0.75542954       0.57704648 </v>
   <v>       0.86297908       0.83175828       0.56916568 </v>
   <v>       0.17608038       0.55682985       0.54833565 </v>
   <v>       0.22102676       0.53333543       0.44289570 </v>
   <v>       0.44703909       0.25493094       0.57389598 </v>
   <v>       0.36543189       0.33160479       0.56619916 </v>
   <v>       0.67747833       0.05625175       0.54648901 </v>
   <v>       0.72170518       0.03264723       0.44086903 </v>
   <v>       0.22773522       0.67644487       0.44546770 </v>
   <v>       0.72913711       0.17638000       0.44296068 </v>
   <v>       0.05947870       0.61996355       0.45026429 </v>
   <v>       0.97865768       0.70252315       0.45266009 </v>
   <v>       0.89631459       0.62116980       0.48185073 </v>
   <v>       0.39962075       0.84482282       0.45238870 </v>
   <v>       0.48125754       0.76232962       0.45383427 </v>
   <v>       0.56668286       0.84445896       0.47338506 </v>
   <v>       0.72450850       0.78284582       0.50384068 </v>
   <v>       0.56733939       0.95516161       0.47433753 </v>
   <v>       0.23345442       0.78686431       0.42187751 </v>
   <v>       0.73441659       0.68006117       0.45092459 </v>
   <v>       0.89532478       0.50983692       0.47136936 </v>
   <v>       0.56066329       0.11979416       0.44868416 </v>
   <v>       0.47974971       0.20231965       0.44985787 </v>
   <v>       0.39712970       0.12119166       0.47939620 </v>
   <v>       0.89996380       0.34490744       0.45238780 </v>
   <v>       0.98218849       0.26261671       0.45242953 </v>
   <v>       0.06706825       0.34466965       0.47329091 </v>
   <v>       0.22615392       0.28312806       0.50125473 </v>
   <v>       0.06692047       0.45533607       0.47581920 </v>
   <v>       0.73413058       0.28702524       0.42128031 </v>
   <v>       0.23535541       0.18048003       0.44757934 </v>
   <v>       0.39592437       0.00989232       0.46997841 </v>
   <v>       0.15222913       0.75862119       0.41721164 </v>
   <v>       0.65305448       0.25869793       0.41621017 </v>
   <v>       0.14782578       0.70334448       0.43401752 </v>
   <v>       0.06819418       0.78988619       0.39277544 </v>
   <v>       0.64900810       0.20323873       0.43214295 </v>
   <v>       0.56881338       0.29011547       0.39240395 </v>
   <v>       0.97751462       0.59592999       0.46864885 </v>
   <v>       0.05699704       0.67347504       0.44523238 </v>
   <v>       0.90115740       0.67421221       0.47151612 </v>
   <v>       0.48386490       0.86939890       0.46479266 </v>
   <v>       0.40214916       0.79129749       0.44824449 </v>
   <v>       0.56091566       0.79108078       0.46665093 </v>
   <v>       0.81106881       0.70400686       0.47860557 </v>
   <v>       0.64909490       0.75987570       0.47385064 </v>
   <v>       0.80408575       0.75488822       0.50926126 </v>
   <v>       0.87936087       0.78015705       0.55425986 </v>
   <v>       0.97876562       0.53653498       0.47394835 </v>
   <v>       0.48342705       0.92884387       0.46979635 </v>
   <v>       0.06525406       0.50871042       0.47900014 </v>
   <v>       0.15906185       0.53662011       0.49407343 </v>
   <v>       0.31199625       0.76031633       0.43785600 </v>
   <v>       0.65357557       0.70679806       0.45040991 </v>
   <v>       0.39726323       0.95645602       0.47010198 </v>
   <v>       0.30947589       0.70413302       0.44528088 </v>
   <v>       0.47844845       0.09586661       0.46674256 </v>
   <v>       0.55821001       0.17327534       0.44313537 </v>
   <v>       0.40208752       0.17416581       0.46866903 </v>
   <v>       0.98404469       0.36951420       0.46519350 </v>
   <v>       0.90285993       0.29144714       0.44744779 </v>
   <v>       0.06177105       0.29138278       0.46547118 </v>
   <v>       0.31213022       0.20415249       0.47544847 </v>
   <v>       0.15031672       0.26028412       0.47158671 </v>
   <v>       0.30558221       0.25499856       0.50624457 </v>
   <v>       0.38121718       0.27997067       0.55117711 </v>
   <v>       0.47950339       0.03648289       0.47231107 </v>
   <v>       0.98318070       0.42891187       0.47093235 </v>
   <v>       0.56590166       0.00854707       0.47730210 </v>
   <v>       0.66002204       0.03619203       0.49220013 </v>
   <v>       0.81287435       0.26043831       0.43666036 </v>
   <v>       0.15463165       0.20737245       0.44751859 </v>
   <v>       0.89688529       0.45640120       0.47125917 </v>
   <v>       0.81072733       0.20418681       0.44305401 </v>
  </varray>
 </structure>
</modeling>
