<?xml version="1.0" encoding="ISO-8859-1"?>
<modeling>
 <generator>
  <i name="program" type="string">vasp </i>
  <i name="version" type="string">5.4.4.18Apr17-6-g9f103f2a35  </i>
  <i name="subversion" type="string">(build Jun 07 2020 16:50:00) complex            parallel </i>
  <i name="platform" type="string">LinuxIFC </i>
  <i name="date" type="string">2023 02 12 </i>
  <i name="time" type="string">00:01:02 </i>
 </generator>
 <incar>
  <i type="string" name="SYSTEM">Simulation for cell shape cell volume r</i>
  <i type="int" name="ISTART">     1</i>
  <i type="string" name="PREC">high</i>
  <i type="string" name="ALGO">48</i>
  <i type="int" name="ICHARG">    11</i>
  <i type="int" name="NELM">   200</i>
  <i type="int" name="IBRION">    -1</i>
  <i name="EDIFF">      0.00001000</i>
  <i name="EDIFFG">     -0.01000000</i>
  <i type="int" name="NSW">     0</i>
  <i type="int" name="ISIF">     2</i>
  <i name="ENCUT">    500.00000000</i>
  <i name="POTIM">      0.30000000</i>
  <i type="string" name="LREAL">A</i>
  <i type="int" name="ISMEAR">     0</i>
  <i name="SIGMA">      0.01000000</i>
  <i type="int" name="NWRITE">     0</i>
  <i type="logical" name="LWAVE"> F  </i>
  <i type="logical" name="LCHARG"> F  </i>
  <v type="int" name="KPOINT_BSE">    -1     0     0     0</v>
  <i type="int" name="NELM">   200</i>
  <i type="string" name="GGA">PE</i>
 </incar>
 <structure name="primitive_cell" >
  <crystal>
   <varray name="basis" >
    <v>      33.39648079      -0.00690460       0.00000000 </v>
    <v>     -16.69958740      28.89922093       0.00000000 </v>
    <v>       0.00000000       0.00000000      20.00000000 </v>
   </varray>
   <i name="volume">  19300.33945291 </i>
   <varray name="rec_basis" >
    <v>       0.02994685       0.01730497       0.00000000 </v>
    <v>       0.00000715       0.03460714       0.00000000 </v>
    <v>       0.00000000       0.00000000       0.05000000 </v>
   </varray>
  </crystal>
  <varray name="positions" >
   <v>       0.23247905      -0.10320226      -0.45067558 </v>
   <v>       0.19677037      -0.12064900      -0.46835794 </v>
   <v>       0.17669689      -0.16645423      -0.49065059 </v>
   <v>       0.17155868      -0.09762753      -0.46759019 </v>
   <v>       0.22362260      -0.04199850      -0.40907143 </v>
   <v>       0.24985634      -0.16480426      -0.49027544 </v>
   <v>       0.19344901      -0.04930777      -0.43979898 </v>
   <v>       0.20309434      -0.19097447      -0.49152110 </v>
   <v>       0.20457941      -0.02357961      -0.48009585 </v>
   <v>       0.13047125      -0.18824129       0.48795524 </v>
   <v>       0.12553787      -0.12258422      -0.49227370 </v>
   <v>       0.16904505      -0.04437853      -0.40897477 </v>
   <v>       0.27189689      -0.18885848      -0.49631644 </v>
   <v>       0.10580767      -0.16688330       0.48671457 </v>
   <v>       0.17885885      -0.23770212      -0.49335237 </v>
   <v>       0.34179496      -0.12887394      -0.40842716 </v>
   <v>       0.11333521      -0.22410845       0.47079110 </v>
   <v>       0.32301286      -0.16606187       0.49709958 </v>
   <v>       0.09582229      -0.10112078      -0.49766994 </v>
   <v>       0.35333620      -0.14122046      -0.45078935 </v>
   <v>       0.25117700      -0.23529875      -0.49674055 </v>
   <v>       0.20469881      -0.25811809      -0.49233458 </v>
   <v>       0.11768482      -0.05718551       0.47938700 </v>
   <v>       0.04400465      -0.17925816      -0.41566660 </v>
   <v>       0.34124501      -0.17728967       0.44188670 </v>
   <v>       0.04819988      -0.12524267      -0.48035879 </v>
   <v>       0.31871924      -0.19594471       0.39979953 </v>
   <v>       0.39620035      -0.13495899      -0.44717185 </v>
   <v>       0.02318188      -0.17375322      -0.45310142 </v>
   <v>       0.18326824      -0.30883816      -0.48507735 </v>
   <v>       0.09413454      -0.03486170       0.47350511 </v>
   <v>       0.01586567      -0.19919320      -0.49286006 </v>
   <v>       0.11301062       0.00067695       0.45501013 </v>
   <v>       0.23889897      -0.30120754      -0.42184656 </v>
   <v>       0.12177289      -0.32979644       0.45490742 </v>
   <v>       0.38707445      -0.16725849       0.44151489 </v>
   <v>       0.41185585      -0.14956669      -0.49803198 </v>
   <v>       0.02445607      -0.10096374      -0.48756329 </v>
   <v>       0.20722486      -0.32569819      -0.44780565 </v>
   <v>       0.14260227      -0.34113135       0.48247694 </v>
   <v>      -0.00958949      -0.18097744      -0.42994522 </v>
   <v>       0.04709070      -0.05509647       0.48996475 </v>
   <v>       0.36747971      -0.23385648      -0.43624018 </v>
   <v>       0.39590701      -0.19966414      -0.36572819 </v>
   <v>      -0.01206639      -0.11728365      -0.47414037 </v>
   <v>       0.38173990      -0.19352602       0.34157146 </v>
   <v>       0.40690389      -0.17943862       0.38259119 </v>
   <v>       0.39827382      -0.22178571      -0.40435438 </v>
   <v>       0.12886894      -0.38639400       0.47977751 </v>
   <v>       0.45175530      -0.15713459      -0.48510430 </v>
   <v>       0.19189129      -0.37282237      -0.44544327 </v>
   <v>       0.43847827      -0.14894968       0.36435859 </v>
   <v>       0.02285279      -0.02840403       0.48671777 </v>
   <v>       0.41674244      -0.20532376       0.39613573 </v>
   <v>       0.44218656      -0.19565915      -0.44420195 </v>
   <v>       0.04900720       0.01806295       0.48664547 </v>
   <v>       0.15335092      -0.40166050      -0.48639025 </v>
   <v>       0.24787213      -0.36235973      -0.38086586 </v>
   <v>       0.39672575      -0.25204387      -0.38012009 </v>
   <v>       0.11417222       0.09511368      -0.47366566 </v>
   <v>       0.49147848      -0.13251346       0.48096209 </v>
   <v>       0.21765285      -0.39091366      -0.40541947 </v>
   <v>       0.20373355      -0.38779207       0.39597454 </v>
   <v>      -0.02368855      -0.05211162       0.48654430 </v>
   <v>       0.17773630       0.16145553      -0.42942122 </v>
   <v>       0.19526880      -0.41544527      -0.36701381 </v>
   <v>       0.22968403      -0.40972329      -0.43719877 </v>
   <v>       0.14732479      -0.42139464       0.36378833 </v>
   <v>       0.02533488       0.04091918       0.48691871 </v>
   <v>       0.09776660       0.11523317      -0.48708264 </v>
   <v>       0.47415238      -0.21072654      -0.44650382 </v>
   <v>       0.17735001      -0.42328161       0.38204084 </v>
   <v>       0.14578652      -0.44914854      -0.49950248 </v>
   <v>      -0.47683266      -0.14598489       0.48375601 </v>
   <v>      -0.04396503      -0.02596978       0.48688162 </v>
   <v>       0.17040998       0.18693499      -0.45260669 </v>
   <v>       0.05193922       0.09188081       0.49039455 </v>
   <v>       0.46706666      -0.24238113      -0.42056371 </v>
   <v>       0.19579325       0.20509639      -0.49240780 </v>
   <v>       0.16441538      -0.45572255       0.44060411 </v>
   <v>      -0.48500161      -0.18655391      -0.48369586 </v>
   <v>      -0.02109670       0.02058793       0.48670860 </v>
   <v>      -0.10519473      -0.11622990       0.45556139 </v>
   <v>       0.12191051       0.16329343      -0.47983695 </v>
   <v>       0.19113086      -0.43459775       0.34092611 </v>
   <v>       0.13043343      -0.47983258      -0.44914721 </v>
   <v>      -0.44468497      -0.12501895       0.45618789 </v>
   <v>       0.17587689       0.21329077      -0.41520708 </v>
   <v>      -0.09486984      -0.05021989       0.49043095 </v>
   <v>      -0.12175932      -0.09730773       0.47414134 </v>
   <v>       0.17466158      -0.49137995       0.44138615 </v>
   <v>       0.03156719       0.11859134       0.47412890 </v>
   <v>       0.13696307       0.48370556      -0.45248314 </v>
   <v>      -0.45556187      -0.20778514      -0.49088327 </v>
   <v>       0.09769359       0.18669684      -0.49714773 </v>
   <v>       0.35858103      -0.39930333      -0.38030349 </v>
   <v>       0.19397780      -0.49487296       0.39990718 </v>
   <v>       0.40618906      -0.37025337      -0.43622171 </v>
   <v>      -0.00398083       0.10181664       0.45574904 </v>
   <v>      -0.47918377      -0.25430255      -0.49530721 </v>
   <v>       0.16276411       0.47881235       0.49632755 </v>
   <v>       0.05374899       0.16449695       0.48007273 </v>
   <v>      -0.16761705      -0.12085840       0.48030260 </v>
   <v>      -0.11798196      -0.02753206      -0.48698127 </v>
   <v>       0.12404212       0.45946528      -0.41053570 </v>
   <v>      -0.09769379       0.00901825      -0.47363820 </v>
   <v>       0.38724740      -0.40102029      -0.40430596 </v>
   <v>       0.29770842      -0.46964674      -0.42087678 </v>
   <v>      -0.40927692      -0.18180166      -0.49190598 </v>
   <v>       0.16330630       0.26245126       0.48683623 </v>
   <v>      -0.20615278      -0.17248238      -0.40842744 </v>
   <v>       0.11909781       0.23791577      -0.49194232 </v>
   <v>      -0.22113510      -0.20778633      -0.47982461 </v>
   <v>       0.41157551      -0.39873093      -0.36548693 </v>
   <v>       0.23203890       0.47644136      -0.49578813 </v>
   <v>       0.38539534      -0.41913346       0.39694399 </v>
   <v>       0.49277562      -0.32150259       0.40123377 </v>
   <v>      -0.18959542      -0.09893099      -0.49676760 </v>
   <v>       0.18563538       0.45064141      -0.49622371 </v>
   <v>       0.32225782      -0.47687535      -0.44650093 </v>
   <v>       0.36934502      -0.44502463      -0.44399740 </v>
   <v>      -0.16599721      -0.05124900      -0.47962280 </v>
   <v>      -0.45343344      -0.27494324      -0.49469097 </v>
   <v>      -0.23559301      -0.19674847      -0.43924710 </v>
   <v>       0.48887136      -0.34418252       0.44312721 </v>
   <v>       0.04090961       0.20337058      -0.40857629 </v>
   <v>       0.43240063      -0.38465046       0.34234655 </v>
   <v>       0.22062765       0.32717961       0.47096313 </v>
   <v>       0.18480587       0.30850264       0.48823615 </v>
   <v>      -0.38676430      -0.20597354      -0.48983009 </v>
   <v>      -0.48170124      -0.32609849       0.49843520 </v>
   <v>      -0.25847890      -0.22702694      -0.40865906 </v>
   <v>       0.42101484      -0.40973636       0.38350901 </v>
   <v>       0.45304260      -0.39004310       0.44246125 </v>
   <v>      -0.32992477      -0.11609434       0.47251780 </v>
   <v>       0.09423834       0.25905735      -0.46721814 </v>
   <v>      -0.40735516      -0.25274127      -0.48836375 </v>
   <v>       0.30551590       0.48217930      -0.48349833 </v>
   <v>       0.25485444       0.45279849      -0.49099911 </v>
   <v>       0.39828915      -0.45482607      -0.48448603 </v>
   <v>       0.44588996      -0.41501884      -0.49725101 </v>
   <v>       0.04590132       0.23266303      -0.43959829 </v>
   <v>       0.16161356       0.40451079      -0.49035491 </v>
   <v>      -0.16374292       0.00672169      -0.42947342 </v>
   <v>      -0.24077251      -0.12860854      -0.49120140 </v>
   <v>      -0.48719518      -0.35664550      -0.44976814 </v>
   <v>      -0.26192537      -0.17466738      -0.46656658 </v>
   <v>      -0.18936086      -0.02609001      -0.45254584 </v>
   <v>       0.02028693       0.21796712      -0.48000744 </v>
   <v>       0.47617221      -0.39957853      -0.44640697 </v>
   <v>      -0.31128803      -0.13334158       0.48948237 </v>
   <v>       0.41947196      -0.44156873       0.36552051 </v>
   <v>      -0.46330916      -0.34526285      -0.40741239 </v>
   <v>       0.16318635       0.33301156      -0.49007825 </v>
   <v>      -0.33582591      -0.17957671      -0.48907703 </v>
   <v>       0.11738827       0.30732790      -0.46782328 </v>
   <v>      -0.21576763      -0.04680956      -0.41512299 </v>
   <v>       0.33786623       0.47379694       0.48434439 </v>
   <v>       0.38310053      -0.49463548       0.48176194 </v>
   <v>       0.03852482       0.25559102      -0.40912961 </v>
   <v>      -0.20737648      -0.01878034      -0.49245261 </v>
   <v>       0.23450852       0.40650008      -0.49203737 </v>
   <v>       0.18779172       0.38395866      -0.49084385 </v>
   <v>      -0.26525257      -0.10877985       0.48798250 </v>
   <v>      -0.31016918      -0.19976159      -0.46703457 </v>
   <v>       0.32660149       0.44156600       0.45692551 </v>
   <v>      -0.32851862      -0.23549474      -0.44937411 </v>
   <v>       0.10005591       0.32567293      -0.45003594 </v>
  </varray>
 </structure>
 <varray name="primitive_index" >
  <v type="int" >        1 </v>
  <v type="int" >      100 </v>
  <v type="int" >       97 </v>
  <v type="int" >       99 </v>
  <v type="int" >        4 </v>
  <v type="int" >       65 </v>
  <v type="int" >      102 </v>
  <v type="int" >       89 </v>
  <v type="int" >        5 </v>
  <v type="int" >      133 </v>
  <v type="int" >       98 </v>
  <v type="int" >        3 </v>
  <v type="int" >       90 </v>
  <v type="int" >       79 </v>
  <v type="int" >       64 </v>
  <v type="int" >       17 </v>
  <v type="int" >       32 </v>
  <v type="int" >      151 </v>
  <v type="int" >      134 </v>
  <v type="int" >      115 </v>
  <v type="int" >       66 </v>
  <v type="int" >       88 </v>
  <v type="int" >       73 </v>
  <v type="int" >       34 </v>
  <v type="int" >      154 </v>
  <v type="int" >      135 </v>
  <v type="int" >       46 </v>
  <v type="int" >       76 </v>
  <v type="int" >      138 </v>
  <v type="int" >      131 </v>
  <v type="int" >      101 </v>
  <v type="int" >       33 </v>
  <v type="int" >        2 </v>
  <v type="int" >       26 </v>
  <v type="int" >       57 </v>
  <v type="int" >      153 </v>
  <v type="int" >      152 </v>
  <v type="int" >      136 </v>
  <v type="int" >      130 </v>
  <v type="int" >      167 </v>
  <v type="int" >       35 </v>
  <v type="int" >      137 </v>
  <v type="int" >       18 </v>
  <v type="int" >       20 </v>
  <v type="int" >       31 </v>
  <v type="int" >       49 </v>
  <v type="int" >      156 </v>
  <v type="int" >      120 </v>
  <v type="int" >       84 </v>
  <v type="int" >      116 </v>
  <v type="int" >      129 </v>
  <v type="int" >       50 </v>
  <v type="int" >       87 </v>
  <v type="int" >       48 </v>
  <v type="int" >      117 </v>
  <v type="int" >       63 </v>
  <v type="int" >      128 </v>
  <v type="int" >       29 </v>
  <v type="int" >       19 </v>
  <v type="int" >       41 </v>
  <v type="int" >       82 </v>
  <v type="int" >      132 </v>
  <v type="int" >       58 </v>
  <v type="int" >       62 </v>
  <v type="int" >       45 </v>
  <v type="int" >       30 </v>
  <v type="int" >       28 </v>
  <v type="int" >       60 </v>
  <v type="int" >       85 </v>
  <v type="int" >      148 </v>
  <v type="int" >      118 </v>
  <v type="int" >      168 </v>
  <v type="int" >      164 </v>
  <v type="int" >      155 </v>
  <v type="int" >       86 </v>
  <v type="int" >      150 </v>
  <v type="int" >      149 </v>
  <v type="int" >       16 </v>
  <v type="int" >       43 </v>
  <v type="int" >      165 </v>
  <v type="int" >      119 </v>
  <v type="int" >       61 </v>
  <v type="int" >        7 </v>
  <v type="int" >      147 </v>
  <v type="int" >       59 </v>
  <v type="int" >       78 </v>
  <v type="int" >       47 </v>
  <v type="int" >       44 </v>
  <v type="int" >      143 </v>
  <v type="int" >      107 </v>
  <v type="int" >      166 </v>
  <v type="int" >      113 </v>
  <v type="int" >      127 </v>
  <v type="int" >       91 </v>
  <v type="int" >      146 </v>
  <v type="int" >       24 </v>
  <v type="int" >       56 </v>
  <v type="int" >       23 </v>
  <v type="int" >       12 </v>
  <v type="int" >       69 </v>
  <v type="int" >      163 </v>
  <v type="int" >       75 </v>
  <v type="int" >       74 </v>
  <v type="int" >      142 </v>
  <v type="int" >       27 </v>
  <v type="int" >       36 </v>
  <v type="int" >      126 </v>
  <v type="int" >       21 </v>
  <v type="int" >       67 </v>
  <v type="int" >       81 </v>
  <v type="int" >        8 </v>
  <v type="int" >      110 </v>
  <v type="int" >       10 </v>
  <v type="int" >       25 </v>
  <v type="int" >       72 </v>
  <v type="int" >       53 </v>
  <v type="int" >       51 </v>
  <v type="int" >      140 </v>
  <v type="int" >       96 </v>
  <v type="int" >      124 </v>
  <v type="int" >      123 </v>
  <v type="int" >      141 </v>
  <v type="int" >       93 </v>
  <v type="int" >      108 </v>
  <v type="int" >      160 </v>
  <v type="int" >       13 </v>
  <v type="int" >       54 </v>
  <v type="int" >       42 </v>
  <v type="int" >      145 </v>
  <v type="int" >       92 </v>
  <v type="int" >      157 </v>
  <v type="int" >        9 </v>
  <v type="int" >      162 </v>
  <v type="int" >      159 </v>
  <v type="int" >       37 </v>
  <v type="int" >      111 </v>
  <v type="int" >       68 </v>
  <v type="int" >      125 </v>
  <v type="int" >       94 </v>
  <v type="int" >      122 </v>
  <v type="int" >      158 </v>
  <v type="int" >      114 </v>
  <v type="int" >       71 </v>
  <v type="int" >       40 </v>
  <v type="int" >      104 </v>
  <v type="int" >      121 </v>
  <v type="int" >      105 </v>
  <v type="int" >      144 </v>
  <v type="int" >       15 </v>
  <v type="int" >       77 </v>
  <v type="int" >      139 </v>
  <v type="int" >       55 </v>
  <v type="int" >       22 </v>
  <v type="int" >      109 </v>
  <v type="int" >      103 </v>
  <v type="int" >      112 </v>
  <v type="int" >       39 </v>
  <v type="int" >      161 </v>
  <v type="int" >       83 </v>
  <v type="int" >       14 </v>
  <v type="int" >       38 </v>
  <v type="int" >       70 </v>
  <v type="int" >       95 </v>
  <v type="int" >       80 </v>
  <v type="int" >      106 </v>
  <v type="int" >       52 </v>
  <v type="int" >        6 </v>
  <v type="int" >       11 </v>
 </varray>
 <kpoints>
  <generation param="listgenerated">
   <i name="divisions" type="int">      20 </i>
   <v>       0.00000000       0.00000000       0.00000000 </v>
   <v>       0.50000000       0.00000000       0.00000000 </v>
   <v>       0.33333333       0.33333333       0.00000000 </v>
   <v>       0.00000000       0.00000000       0.00000000 </v>
  </generation>
  <varray name="kpointlist" >
   <v>       0.00000000       0.00000000       0.00000000 </v>
   <v>       0.02631579       0.00000000       0.00000000 </v>
   <v>       0.05263158       0.00000000       0.00000000 </v>
   <v>       0.07894737       0.00000000       0.00000000 </v>
   <v>       0.10526316       0.00000000       0.00000000 </v>
   <v>       0.13157895       0.00000000       0.00000000 </v>
   <v>       0.15789474       0.00000000       0.00000000 </v>
   <v>       0.18421053       0.00000000       0.00000000 </v>
   <v>       0.21052632       0.00000000       0.00000000 </v>
   <v>       0.23684211       0.00000000       0.00000000 </v>
   <v>       0.26315789       0.00000000       0.00000000 </v>
   <v>       0.28947368       0.00000000       0.00000000 </v>
   <v>       0.31578947       0.00000000       0.00000000 </v>
   <v>       0.34210526       0.00000000       0.00000000 </v>
   <v>       0.36842105       0.00000000       0.00000000 </v>
   <v>       0.39473684       0.00000000       0.00000000 </v>
   <v>       0.42105263       0.00000000       0.00000000 </v>
   <v>       0.44736842       0.00000000       0.00000000 </v>
   <v>       0.47368421       0.00000000       0.00000000 </v>
   <v>       0.50000000       0.00000000       0.00000000 </v>
   <v>       0.50000000       0.00000000       0.00000000 </v>
   <v>       0.49122807       0.01754386       0.00000000 </v>
   <v>       0.48245614       0.03508772       0.00000000 </v>
   <v>       0.47368421       0.05263158       0.00000000 </v>
   <v>       0.46491228       0.07017544       0.00000000 </v>
   <v>       0.45614035       0.08771930       0.00000000 </v>
   <v>       0.44736842       0.10526316       0.00000000 </v>
   <v>       0.43859649       0.12280702       0.00000000 </v>
   <v>       0.42982456       0.14035088       0.00000000 </v>
   <v>       0.42105263       0.15789474       0.00000000 </v>
   <v>       0.41228070       0.17543860       0.00000000 </v>
   <v>       0.40350877       0.19298246       0.00000000 </v>
   <v>       0.39473684       0.21052632       0.00000000 </v>
   <v>       0.38596491       0.22807018       0.00000000 </v>
   <v>       0.37719298       0.24561404       0.00000000 </v>
   <v>       0.36842105       0.26315789       0.00000000 </v>
   <v>       0.35964912       0.28070175       0.00000000 </v>
   <v>       0.35087719       0.29824561       0.00000000 </v>
   <v>       0.34210526       0.31578947       0.00000000 </v>
   <v>       0.33333333       0.33333333       0.00000000 </v>
   <v>       0.33333333       0.33333333       0.00000000 </v>
   <v>       0.31578947       0.31578947       0.00000000 </v>
   <v>       0.29824561       0.29824561       0.00000000 </v>
   <v>       0.28070175       0.28070175       0.00000000 </v>
   <v>       0.26315789       0.26315789       0.00000000 </v>
   <v>       0.24561404       0.24561404       0.00000000 </v>
   <v>       0.22807018       0.22807018       0.00000000 </v>
   <v>       0.21052632       0.21052632       0.00000000 </v>
   <v>       0.19298246       0.19298246       0.00000000 </v>
   <v>       0.17543860       0.17543860       0.00000000 </v>
   <v>       0.15789474       0.15789474       0.00000000 </v>
   <v>       0.14035088       0.14035088       0.00000000 </v>
   <v>       0.12280702       0.12280702       0.00000000 </v>
   <v>       0.10526316       0.10526316       0.00000000 </v>
   <v>       0.08771930       0.08771930       0.00000000 </v>
   <v>       0.07017544       0.07017544       0.00000000 </v>
   <v>       0.05263158       0.05263158       0.00000000 </v>
   <v>       0.03508772       0.03508772       0.00000000 </v>
   <v>       0.01754386       0.01754386       0.00000000 </v>
   <v>       0.00000000       0.00000000       0.00000000 </v>
  </varray>
  <varray name="weights" >
   <v>       0.01666667 </v>
   <v>       0.01666667 </v>
   <v>       0.01666667 </v>
   <v>       0.01666667 </v>
   <v>       0.01666667 </v>
   <v>       0.01666667 </v>
   <v>       0.01666667 </v>
   <v>       0.01666667 </v>
   <v>       0.01666667 </v>
   <v>       0.01666667 </v>
   <v>       0.01666667 </v>
   <v>       0.01666667 </v>
   <v>       0.01666667 </v>
   <v>       0.01666667 </v>
   <v>       0.01666667 </v>
   <v>       0.01666667 </v>
   <v>       0.01666667 </v>
   <v>       0.01666667 </v>
   <v>       0.01666667 </v>
   <v>       0.01666667 </v>
   <v>       0.01666667 </v>
   <v>       0.01666667 </v>
   <v>       0.01666667 </v>
   <v>       0.01666667 </v>
   <v>       0.01666667 </v>
   <v>       0.01666667 </v>
   <v>       0.01666667 </v>
   <v>       0.01666667 </v>
   <v>       0.01666667 </v>
   <v>       0.01666667 </v>
   <v>       0.01666667 </v>
   <v>       0.01666667 </v>
   <v>       0.01666667 </v>
   <v>       0.01666667 </v>
   <v>       0.01666667 </v>
   <v>       0.01666667 </v>
   <v>       0.01666667 </v>
   <v>       0.01666667 </v>
   <v>       0.01666667 </v>
   <v>       0.01666667 </v>
   <v>       0.01666667 </v>
   <v>       0.01666667 </v>
   <v>       0.01666667 </v>
   <v>       0.01666667 </v>
   <v>       0.01666667 </v>
   <v>       0.01666667 </v>
   <v>       0.01666667 </v>
   <v>       0.01666667 </v>
   <v>       0.01666667 </v>
   <v>       0.01666667 </v>
   <v>       0.01666667 </v>
   <v>       0.01666667 </v>
   <v>       0.01666667 </v>
   <v>       0.01666667 </v>
   <v>       0.01666667 </v>
   <v>       0.01666667 </v>
   <v>       0.01666667 </v>
   <v>       0.01666667 </v>
   <v>       0.01666667 </v>
   <v>       0.01666667 </v>
  </varray>
 </kpoints>
 <parameters>
  <separator name="general" >
   <i type="string" name="SYSTEM">Simulation for cell shape cell volume r</i>
   <i type="logical" name="LCOMPAT"> F  </i>
  </separator>
  <separator name="electronic" >
   <i type="string" name="PREC">high</i>
   <i name="ENMAX">    500.00000000</i>
   <i name="ENAUG">    644.87300000</i>
   <i name="EDIFF">      0.00001000</i>
   <i type="int" name="IALGO">    38</i>
   <i type="int" name="IWAVPR">    10</i>
   <i type="int" name="NBANDS">   352</i>
   <i name="NELECT">    516.00000000</i>
   <i type="int" name="TURBO">     0</i>
   <i type="int" name="IRESTART">     0</i>
   <i type="int" name="NREBOOT">     0</i>
   <i type="int" name="NMIN">     0</i>
   <i name="EREF">      0.00000000</i>
   <separator name="electronic smearing" >
    <i type="int" name="ISMEAR">     0</i>
    <i name="SIGMA">      0.01000000</i>
    <i name="KSPACING">      0.50000000</i>
    <i type="logical" name="KGAMMA"> T  </i>
   </separator>
   <separator name="electronic projectors" >
    <i type="logical" name="LREAL"> T  </i>
    <v name="ROPT">     -0.00040000     -0.00040000     -0.00040000</v>
    <i type="int" name="LMAXPAW">  -100</i>
    <i type="int" name="LMAXMIX">     2</i>
    <i type="logical" name="NLSPLINE"> F  </i>
   </separator>
   <separator name="electronic startup" >
    <i type="int" name="ISTART">     1</i>
    <i type="int" name="ICHARG">    11</i>
    <i type="int" name="INIWAV">     1</i>
   </separator>
   <separator name="electronic spin" >
    <i type="int" name="ISPIN">     1</i>
    <i type="logical" name="LNONCOLLINEAR"> F  </i>
    <v name="MAGMOM">      1.00000000      1.00000000      1.00000000      1.00000000      1.00000000      1.00000000      1.00000000      1.00000000      1.00000000      1.00000000      1.00000000      1.00000000      1.00000000      1.00000000      1.00000000      1.00000000      1.00000000      1.00000000      1.00000000      1.00000000
      1.00000000      1.00000000      1.00000000      1.00000000      1.00000000      1.00000000      1.00000000      1.00000000      1.00000000      1.00000000      1.00000000      1.00000000      1.00000000      1.00000000      1.00000000      1.00000000      1.00000000      1.00000000      1.00000000      1.00000000
      1.00000000      1.00000000      1.00000000      1.00000000      1.00000000      1.00000000      1.00000000      1.00000000      1.00000000      1.00000000      1.00000000      1.00000000      1.00000000      1.00000000      1.00000000      1.00000000      1.00000000      1.00000000      1.00000000      1.00000000
      1.00000000      1.00000000      1.00000000      1.00000000      1.00000000      1.00000000      1.00000000      1.00000000      1.00000000      1.00000000      1.00000000      1.00000000      1.00000000      1.00000000      1.00000000      1.00000000      1.00000000      1.00000000      1.00000000      1.00000000
      1.00000000      1.00000000      1.00000000      1.00000000      1.00000000      1.00000000      1.00000000      1.00000000      1.00000000      1.00000000      1.00000000      1.00000000      1.00000000      1.00000000      1.00000000      1.00000000      1.00000000      1.00000000      1.00000000      1.00000000
      1.00000000      1.00000000      1.00000000      1.00000000      1.00000000      1.00000000      1.00000000      1.00000000      1.00000000      1.00000000      1.00000000      1.00000000      1.00000000      1.00000000      1.00000000      1.00000000      1.00000000      1.00000000      1.00000000      1.00000000
      1.00000000      1.00000000      1.00000000      1.00000000      1.00000000      1.00000000      1.00000000      1.00000000      1.00000000      1.00000000      1.00000000      1.00000000      1.00000000      1.00000000      1.00000000      1.00000000      1.00000000      1.00000000      1.00000000      1.00000000
      1.00000000      1.00000000      1.00000000      1.00000000      1.00000000      1.00000000      1.00000000      1.00000000      1.00000000      1.00000000      1.00000000      1.00000000      1.00000000      1.00000000      1.00000000      1.00000000      1.00000000      1.00000000      1.00000000      1.00000000
      1.00000000      1.00000000      1.00000000      1.00000000      1.00000000      1.00000000      1.00000000      1.00000000</v>
    <i name="NUPDOWN">     -1.00000000</i>
    <i type="logical" name="LSORBIT"> F  </i>
    <v name="SAXIS">      0.00000000      0.00000000      1.00000000</v>
    <i type="logical" name="LSPIRAL"> F  </i>
    <v name="QSPIRAL">      0.00000000      0.00000000      0.00000000</v>
    <i type="logical" name="LZEROZ"> F  </i>
   </separator>
   <separator name="electronic exchange-correlation" >
    <i type="logical" name="LASPH"> F  </i>
    <i type="logical" name="LMETAGGA"> F  </i>
   </separator>
   <separator name="electronic convergence" >
    <i type="int" name="NELM">   200</i>
    <i type="int" name="NELMDL">     0</i>
    <i type="int" name="NELMIN">     2</i>
    <i name="ENINI">    500.00000000</i>
    <separator name="electronic convergence detail" >
     <i type="logical" name="LDIAG"> T  </i>
     <i type="logical" name="LSUBROT"> F  </i>
     <i name="WEIMIN">      0.00000000</i>
     <i name="EBREAK">      0.00000001</i>
     <i name="DEPER">      0.30000000</i>
     <i type="int" name="NRMM">     4</i>
     <i name="TIME">      0.40000000</i>
    </separator>
   </separator>
   <separator name="electronic mixer" >
    <i name="AMIX">      0.40000000</i>
    <i name="BMIX">      1.00000000</i>
    <i name="AMIN">      0.10000000</i>
    <i name="AMIX_MAG">      1.60000000</i>
    <i name="BMIX_MAG">      1.00000000</i>
    <separator name="electronic mixer details" >
     <i type="int" name="IMIX">     4</i>
     <i type="logical" name="MIXFIRST"> F  </i>
     <i type="int" name="MAXMIX">   -45</i>
     <i name="WC">    100.00000000</i>
     <i type="int" name="INIMIX">     1</i>
     <i type="int" name="MIXPRE">     1</i>
     <i type="int" name="MREMOVE">     5</i>
    </separator>
   </separator>
   <separator name="electronic dipolcorrection" >
    <i type="logical" name="LDIPOL"> F  </i>
    <i type="logical" name="LMONO"> F  </i>
    <i type="int" name="IDIPOL">     0</i>
    <i name="EPSILON">      1.00000000</i>
    <v name="DIPOL">   -100.00000000   -100.00000000   -100.00000000</v>
    <i name="EFIELD">      0.00000000</i>
   </separator>
  </separator>
  <separator name="grids" >
   <i type="int" name="NGX">   250</i>
   <i type="int" name="NGY">   250</i>
   <i type="int" name="NGZ">   150</i>
   <i type="int" name="NGXF">   378</i>
   <i type="int" name="NGYF">   378</i>
   <i type="int" name="NGZF">   224</i>
   <i type="logical" name="ADDGRID"> F  </i>
  </separator>
  <separator name="ionic" >
   <i type="int" name="NSW">     0</i>
   <i type="int" name="IBRION">    -1</i>
   <i type="int" name="MDALGO">     0</i>
   <i type="int" name="ISIF">     2</i>
   <i name="PSTRESS">      0.00000000</i>
   <i name="EDIFFG">     -0.01000000</i>
   <i type="int" name="NFREE">     0</i>
   <i name="POTIM">      0.30000000</i>
   <i name="SMASS">     -3.00000000</i>
   <i name="SCALEE">      1.00000000</i>
  </separator>
  <separator name="ionic md" >
   <i name="TEBEG">      0.00010000</i>
   <i name="TEEND">      0.00010000</i>
   <i type="int" name="NBLOCK">     1</i>
   <i type="int" name="KBLOCK">     1</i>
   <i type="int" name="NPACO">   256</i>
   <i name="APACO">     16.00000000</i>
  </separator>
  <separator name="symmetry" >
   <i type="int" name="ISYM">     2</i>
   <i name="SYMPREC">      0.00001000</i>
  </separator>
  <separator name="dos" >
   <i type="int" name="LORBIT">     0</i>
   <v name="RWIGS">     -1.00000000     -1.00000000     -1.00000000</v>
   <i type="int" name="NEDOS">   301</i>
   <i name="EMIN">     10.00000000</i>
   <i name="EMAX">    -10.00000000</i>
   <i name="EFERMI">      0.00000000</i>
  </separator>
  <separator name="writing" >
   <i type="int" name="NWRITE">     0</i>
   <i type="logical" name="LWAVE"> F  </i>
   <i type="logical" name="LDOWNSAMPLE"> F  </i>
   <i type="logical" name="LCHARG"> F  </i>
   <i type="logical" name="LPARD"> F  </i>
   <i type="logical" name="LVTOT"> F  </i>
   <i type="logical" name="LVHAR"> F  </i>
   <i type="logical" name="LELF"> F  </i>
   <i type="logical" name="LOPTICS"> F  </i>
   <v name="STM">      0.00000000      0.00000000      0.00000000      0.00000000      0.00000000      0.00000000      0.00000000</v>
  </separator>
  <separator name="performance" >
   <i type="int" name="NPAR">    16</i>
   <i type="int" name="NSIM">     4</i>
   <i type="int" name="NBLK">    -1</i>
   <i type="logical" name="LPLANE"> T  </i>
   <i type="logical" name="LSCALAPACK"> T  </i>
   <i type="logical" name="LSCAAWARE"> F  </i>
   <i type="logical" name="LSCALU"> F  </i>
   <i type="logical" name="LASYNC"> F  </i>
   <i type="logical" name="LORBITALREAL"> F  </i>
  </separator>
  <separator name="miscellaneous" >
   <i type="int" name="IDIOT">     3</i>
   <i type="int" name="ISPECIAL">     0</i>
   <i type="logical" name="LMUSIC"> F  </i>
   <v name="POMASS">      1.00000000     14.00100000     12.01100000</v>
   <v name="DARWINR">      0.00000000      0.00000000      0.00000000</v>
   <v name="DARWINV">      1.00000000      1.00000000      1.00000000</v>
   <i type="logical" name="LCORR"> T  </i>
  </separator>
  <i type="logical" name="GGA_COMPAT"> T  </i>
  <i type="logical" name="LBERRY"> F  </i>
  <i type="int" name="ICORELEVEL">     0</i>
  <i type="logical" name="LDAU"> F  </i>
  <i type="int" name="I_CONSTRAINED_M">     0</i>
  <separator name="electronic exchange-correlation" >
   <i type="string" name="GGA">PE</i>
   <i type="int" name="VOSKOWN">     0</i>
   <i type="logical" name="LHFCALC"> F  </i>
   <i type="string" name="PRECFOCK"></i>
   <i type="logical" name="LSYMGRAD"> F  </i>
   <i type="logical" name="LHFONE"> F  </i>
   <i type="logical" name="LRHFCALC"> F  </i>
   <i type="logical" name="LTHOMAS"> F  </i>
   <i type="logical" name="LMODELHF"> F  </i>
   <i name="ENCUT4O">     -1.00000000</i>
   <i type="int" name="EXXOEP">     0</i>
   <i type="int" name="FOURORBIT">     0</i>
   <i name="AEXX">      0.00000000</i>
   <i name="HFALPHA">      0.00000000</i>
   <i name="MCALPHA">      0.00000000</i>
   <i name="ALDAX">      1.00000000</i>
   <i name="AGGAX">      1.00000000</i>
   <i name="ALDAC">      1.00000000</i>
   <i name="AGGAC">      1.00000000</i>
   <i type="int" name="NKREDX">     1</i>
   <i type="int" name="NKREDY">     1</i>
   <i type="int" name="NKREDZ">     1</i>
   <i type="logical" name="SHIFTRED"> F  </i>
   <i type="logical" name="ODDONLY"> F  </i>
   <i type="logical" name="EVENONLY"> F  </i>
   <i type="int" name="LMAXFOCK">     0</i>
   <i type="int" name="NMAXFOCKAE">     0</i>
   <i type="logical" name="LFOCKAEDFT"> F  </i>
   <i name="HFSCREEN">      0.00000000</i>
   <i name="HFSCREENC">      0.00000000</i>
   <i type="int" name="NBANDSGWLOW">     0</i>
  </separator>
  <separator name="vdW DFT" >
   <i type="logical" name="LUSE_VDW"> F  </i>
   <i name="Zab_VDW">     -0.84910000</i>
   <i name="PARAM1">      0.12340000</i>
   <i name="PARAM2">      1.00000000</i>
   <i name="PARAM3">      0.00000000</i>
  </separator>
  <separator name="model GW" >
   <i type="int" name="MODEL_GW">     0</i>
   <i name="MODEL_EPS0">     68.92978376</i>
   <i name="MODEL_ALPHA">      1.00000000</i>
  </separator>
  <separator name="linear response parameters" >
   <i type="logical" name="LEPSILON"> F  </i>
   <i type="logical" name="LRPA"> F  </i>
   <i type="logical" name="LNABLA"> F  </i>
   <i type="logical" name="LVEL"> F  </i>
   <i type="int" name="KINTER">     0</i>
   <i name="CSHIFT">      0.10000000</i>
   <i name="OMEGAMAX">     -1.00000000</i>
   <i name="DEG_THRESHOLD">      0.00200000</i>
   <i name="RTIME">     -0.10000000</i>
   <i name="WPLASMAI">      0.00000000</i>
   <v name="DFIELD">      0.00000000      0.00000000      0.00000000</v>
   <v name="WPLASMA">      0.00000000      0.00000000      0.00000000      0.00000000      0.00000000      0.00000000      0.00000000      0.00000000      0.00000000</v>
  </separator>
  <separator name="orbital magnetization" >
   <i type="logical" name="NUCIND"> F  </i>
   <v name="MAGPOS">      0.00000000      0.00000000      0.00000000</v>
   <i type="logical" name="LNICSALL"> T  </i>
   <i type="logical" name="ORBITALMAG"> F  </i>
   <i type="logical" name="LMAGBLOCH"> F  </i>
   <i type="logical" name="LCHIMAG"> F  </i>
   <i type="logical" name="LGAUGE"> T  </i>
   <i type="int" name="MAGATOM">     0</i>
   <v name="MAGDIPOL">      0.00000000      0.00000000      0.00000000</v>
   <v name="AVECCONST">      0.00000000      0.00000000      0.00000000</v>
  </separator>
  <separator name="response functions" >
   <i type="logical" name="LADDER"> F  </i>
   <i type="logical" name="LRPAFORCE"> F  </i>
   <i type="logical" name="LFXC"> F  </i>
   <i type="logical" name="LHARTREE"> T  </i>
   <i type="int" name="IBSE">     0</i>
   <v type="int" name="KPOINT">    -1     0     0     0</v>
   <i type="logical" name="LTCTE"> F  </i>
   <i type="logical" name="LTETE"> F  </i>
   <i type="logical" name="LTRIPLET"> F  </i>
   <i type="logical" name="LFXCEPS"> F  </i>
   <i type="logical" name="LFXHEG"> F  </i>
   <i type="int" name="NATURALO">     2</i>
   <i type="logical" name="L2ORDER"> F  </i>
   <i type="logical" name="LMP2LT"> F  </i>
   <i type="logical" name="LUSEW"> F  </i>
   <i name="ENCUTGW">     -2.00000000</i>
   <i name="ENCUTGWSOFT">     -2.00000000</i>
   <i name="ENCUTLF">     -1.00000000</i>
   <i type="int" name="LMAXMP2">    -1</i>
   <i name="SCISSOR">      0.00000000</i>
   <i type="int" name="NOMEGA">     0</i>
   <i type="int" name="NOMEGAR">     0</i>
   <i type="int" name="NBANDSGW">    -1</i>
   <i type="int" name="NBANDSO">    -1</i>
   <i type="int" name="NBANDSV">    -1</i>
   <i type="int" name="NELM">   200</i>
   <i type="int" name="NELMHF">     1</i>
   <i type="int" name="DIM">     3</i>
   <i type="int" name="ANTIRES">     0</i>
   <i name="OMEGAMAX">    -30.00000000</i>
   <i name="OMEGAMIN">    -30.00000000</i>
   <i name="OMEGATL">   -200.00000000</i>
   <i type="int" name="OMEGAGRID">   140</i>
   <i name="CSHIFT">     -0.10000000</i>
   <i type="logical" name="SELFENERGY"> F  </i>
   <i type="logical" name="LSPECTRAL"> F  </i>
   <i type="logical" name="LSPECTRALGW"> F  </i>
   <i type="logical" name="LSINGLES"> F  </i>
   <i type="logical" name="LFERMIGW"> F  </i>
   <i type="logical" name="ODDONLYGW"> F  </i>
   <i type="logical" name="EVENONLYGW"> F  </i>
   <i type="int" name="NKREDLFX">     1</i>
   <i type="int" name="NKREDLFY">     1</i>
   <i type="int" name="NKREDLFZ">     1</i>
   <i type="int" name="MAXMEM">  2800</i>
   <i type="int" name="TELESCOPE">     0</i>
   <i type="int" name="TAUPAR">     1</i>
   <i type="int" name="OMEGAPAR">    -1</i>
   <i name="LAMBDA">      1.00000000</i>
  </separator>
  <separator name="External order field" >
   <i name="OFIELD_KAPPA">      0.00000000</i>
   <v name="OFIELD_K">      0.00000000      0.00000000      0.00000000</v>
   <i name="OFIELD_Q6_NEAR">      0.00000000</i>
   <i name="OFIELD_Q6_FAR">      0.00000000</i>
   <i name="OFIELD_A">      0.00000000</i>
  </separator>
  <separator name="solvation model" >
   <i type="logical" name="LSOL"> F  </i>
  </separator>
 </parameters>
 <atominfo>
  <atoms>     168 </atoms>
  <types>       3 </types>
  <array name="atoms" >
   <dimension dim="1">ion</dimension>
   <field type="string">element</field>
   <field type="int">atomtype</field>
   <set>
    <rc><c>H </c><c>   1</c></rc>
    <rc><c>H </c><c>   1</c></rc>
    <rc><c>H </c><c>   1</c></rc>
    <rc><c>H </c><c>   1</c></rc>
    <rc><c>H </c><c>   1</c></rc>
    <rc><c>H </c><c>   1</c></rc>
    <rc><c>H </c><c>   1</c></rc>
    <rc><c>H </c><c>   1</c></rc>
    <rc><c>H </c><c>   1</c></rc>
    <rc><c>H </c><c>   1</c></rc>
    <rc><c>H </c><c>   1</c></rc>
    <rc><c>H </c><c>   1</c></rc>
    <rc><c>H </c><c>   1</c></rc>
    <rc><c>H </c><c>   1</c></rc>
    <rc><c>H </c><c>   1</c></rc>
    <rc><c>H </c><c>   1</c></rc>
    <rc><c>H </c><c>   1</c></rc>
    <rc><c>H </c><c>   1</c></rc>
    <rc><c>H </c><c>   1</c></rc>
    <rc><c>H </c><c>   1</c></rc>
    <rc><c>H </c><c>   1</c></rc>
    <rc><c>H </c><c>   1</c></rc>
    <rc><c>H </c><c>   1</c></rc>
    <rc><c>H </c><c>   1</c></rc>
    <rc><c>H </c><c>   1</c></rc>
    <rc><c>H </c><c>   1</c></rc>
    <rc><c>H </c><c>   1</c></rc>
    <rc><c>H </c><c>   1</c></rc>
    <rc><c>H </c><c>   1</c></rc>
    <rc><c>H </c><c>   1</c></rc>
    <rc><c>H </c><c>   1</c></rc>
    <rc><c>H </c><c>   1</c></rc>
    <rc><c>H </c><c>   1</c></rc>
    <rc><c>H </c><c>   1</c></rc>
    <rc><c>H </c><c>   1</c></rc>
    <rc><c>H </c><c>   1</c></rc>
    <rc><c>H </c><c>   1</c></rc>
    <rc><c>H </c><c>   1</c></rc>
    <rc><c>H </c><c>   1</c></rc>
    <rc><c>H </c><c>   1</c></rc>
    <rc><c>H </c><c>   1</c></rc>
    <rc><c>H </c><c>   1</c></rc>
    <rc><c>H </c><c>   1</c></rc>
    <rc><c>H </c><c>   1</c></rc>
    <rc><c>H </c><c>   1</c></rc>
    <rc><c>H </c><c>   1</c></rc>
    <rc><c>H </c><c>   1</c></rc>
    <rc><c>H </c><c>   1</c></rc>
    <rc><c>H </c><c>   1</c></rc>
    <rc><c>H </c><c>   1</c></rc>
    <rc><c>H </c><c>   1</c></rc>
    <rc><c>H </c><c>   1</c></rc>
    <rc><c>H </c><c>   1</c></rc>
    <rc><c>H </c><c>   1</c></rc>
    <rc><c>H </c><c>   1</c></rc>
    <rc><c>H </c><c>   1</c></rc>
    <rc><c>H </c><c>   1</c></rc>
    <rc><c>H </c><c>   1</c></rc>
    <rc><c>H </c><c>   1</c></rc>
    <rc><c>H </c><c>   1</c></rc>
    <rc><c>N </c><c>   2</c></rc>
    <rc><c>N </c><c>   2</c></rc>
    <rc><c>N </c><c>   2</c></rc>
    <rc><c>N </c><c>   2</c></rc>
    <rc><c>N </c><c>   2</c></rc>
    <rc><c>N </c><c>   2</c></rc>
    <rc><c>N </c><c>   2</c></rc>
    <rc><c>N </c><c>   2</c></rc>
    <rc><c>N </c><c>   2</c></rc>
    <rc><c>N </c><c>   2</c></rc>
    <rc><c>N </c><c>   2</c></rc>
    <rc><c>N </c><c>   2</c></rc>
    <rc><c>N </c><c>   2</c></rc>
    <rc><c>N </c><c>   2</c></rc>
    <rc><c>N </c><c>   2</c></rc>
    <rc><c>N </c><c>   2</c></rc>
    <rc><c>N </c><c>   2</c></rc>
    <rc><c>N </c><c>   2</c></rc>
    <rc><c>N </c><c>   2</c></rc>
    <rc><c>N </c><c>   2</c></rc>
    <rc><c>N </c><c>   2</c></rc>
    <rc><c>N </c><c>   2</c></rc>
    <rc><c>N </c><c>   2</c></rc>
    <rc><c>N </c><c>   2</c></rc>
    <rc><c>C </c><c>   3</c></rc>
    <rc><c>C </c><c>   3</c></rc>
    <rc><c>C </c><c>   3</c></rc>
    <rc><c>C </c><c>   3</c></rc>
    <rc><c>C </c><c>   3</c></rc>
    <rc><c>C </c><c>   3</c></rc>
    <rc><c>C </c><c>   3</c></rc>
    <rc><c>C </c><c>   3</c></rc>
    <rc><c>C </c><c>   3</c></rc>
    <rc><c>C </c><c>   3</c></rc>
    <rc><c>C </c><c>   3</c></rc>
    <rc><c>C </c><c>   3</c></rc>
    <rc><c>C </c><c>   3</c></rc>
    <rc><c>C </c><c>   3</c></rc>
    <rc><c>C </c><c>   3</c></rc>
    <rc><c>C </c><c>   3</c></rc>
    <rc><c>C </c><c>   3</c></rc>
    <rc><c>C </c><c>   3</c></rc>
    <rc><c>C </c><c>   3</c></rc>
    <rc><c>C </c><c>   3</c></rc>
    <rc><c>C </c><c>   3</c></rc>
    <rc><c>C </c><c>   3</c></rc>
    <rc><c>C </c><c>   3</c></rc>
    <rc><c>C </c><c>   3</c></rc>
    <rc><c>C </c><c>   3</c></rc>
    <rc><c>C </c><c>   3</c></rc>
    <rc><c>C </c><c>   3</c></rc>
    <rc><c>C </c><c>   3</c></rc>
    <rc><c>C </c><c>   3</c></rc>
    <rc><c>C </c><c>   3</c></rc>
    <rc><c>C </c><c>   3</c></rc>
    <rc><c>C </c><c>   3</c></rc>
    <rc><c>C </c><c>   3</c></rc>
    <rc><c>C </c><c>   3</c></rc>
    <rc><c>C </c><c>   3</c></rc>
    <rc><c>C </c><c>   3</c></rc>
    <rc><c>C </c><c>   3</c></rc>
    <rc><c>C </c><c>   3</c></rc>
    <rc><c>C </c><c>   3</c></rc>
    <rc><c>C </c><c>   3</c></rc>
    <rc><c>C </c><c>   3</c></rc>
    <rc><c>C </c><c>   3</c></rc>
    <rc><c>C </c><c>   3</c></rc>
    <rc><c>C </c><c>   3</c></rc>
    <rc><c>C </c><c>   3</c></rc>
    <rc><c>C </c><c>   3</c></rc>
    <rc><c>C </c><c>   3</c></rc>
    <rc><c>C </c><c>   3</c></rc>
    <rc><c>C </c><c>   3</c></rc>
    <rc><c>C </c><c>   3</c></rc>
    <rc><c>C </c><c>   3</c></rc>
    <rc><c>C </c><c>   3</c></rc>
    <rc><c>C </c><c>   3</c></rc>
    <rc><c>C </c><c>   3</c></rc>
    <rc><c>C </c><c>   3</c></rc>
    <rc><c>C </c><c>   3</c></rc>
    <rc><c>C </c><c>   3</c></rc>
    <rc><c>C </c><c>   3</c></rc>
    <rc><c>C </c><c>   3</c></rc>
    <rc><c>C </c><c>   3</c></rc>
    <rc><c>C </c><c>   3</c></rc>
    <rc><c>C </c><c>   3</c></rc>
    <rc><c>C </c><c>   3</c></rc>
    <rc><c>C </c><c>   3</c></rc>
    <rc><c>C </c><c>   3</c></rc>
    <rc><c>C </c><c>   3</c></rc>
    <rc><c>C </c><c>   3</c></rc>
    <rc><c>C </c><c>   3</c></rc>
    <rc><c>C </c><c>   3</c></rc>
    <rc><c>C </c><c>   3</c></rc>
    <rc><c>C </c><c>   3</c></rc>
    <rc><c>C </c><c>   3</c></rc>
    <rc><c>C </c><c>   3</c></rc>
    <rc><c>C </c><c>   3</c></rc>
    <rc><c>C </c><c>   3</c></rc>
    <rc><c>C </c><c>   3</c></rc>
    <rc><c>C </c><c>   3</c></rc>
    <rc><c>C </c><c>   3</c></rc>
    <rc><c>C </c><c>   3</c></rc>
    <rc><c>C </c><c>   3</c></rc>
    <rc><c>C </c><c>   3</c></rc>
    <rc><c>C </c><c>   3</c></rc>
    <rc><c>C </c><c>   3</c></rc>
    <rc><c>C </c><c>   3</c></rc>
   </set>
  </array>
  <array name="atomtypes" >
   <dimension dim="1">type</dimension>
   <field type="int">atomspertype</field>
   <field type="string">element</field>
   <field>mass</field>
   <field>valence</field>
   <field type="string">pseudopotential</field>
   <set>
    <rc><c>  60</c><c>H </c><c>      1.00000000</c><c>      1.00000000</c><c>  PAW_PBE H 15Jun2001                   </c></rc>
    <rc><c>  24</c><c>N </c><c>     14.00100000</c><c>      5.00000000</c><c>  PAW_PBE N 08Apr2002                   </c></rc>
    <rc><c>  84</c><c>C </c><c>     12.01100000</c><c>      4.00000000</c><c>  PAW_PBE C 08Apr2002                   </c></rc>
   </set>
  </array>
 </atominfo>
 <structure name="initialpos" >
  <crystal>
   <varray name="basis" >
    <v>      33.39648079      -0.00690460       0.00000000 </v>
    <v>     -16.69958740      28.89922093       0.00000000 </v>
    <v>       0.00000000       0.00000000      20.00000000 </v>
   </varray>
   <i name="volume">  19300.33945291 </i>
   <varray name="rec_basis" >
    <v>       0.02994685       0.01730497       0.00000000 </v>
    <v>       0.00000715       0.03460714       0.00000000 </v>
    <v>       0.00000000       0.00000000       0.05000000 </v>
   </varray>
  </crystal>
  <varray name="positions" >
   <v>       0.23247905       0.89679774       0.54932442 </v>
   <v>       0.11301062       0.00067695       0.45501013 </v>
   <v>       0.16904505       0.95562147       0.59102523 </v>
   <v>       0.22362260       0.95800150       0.59092857 </v>
   <v>       0.20457941       0.97642039       0.51990415 </v>
   <v>       0.67148138       0.76450526       0.55062589 </v>
   <v>       0.89480527       0.88377010       0.45556139 </v>
   <v>       0.79384722       0.82751762       0.59157256 </v>
   <v>       0.74152110       0.77297306       0.59134094 </v>
   <v>       0.77886490       0.79221367       0.52017539 </v>
   <v>       0.10005591       0.32567293       0.54996406 </v>
   <v>       0.99601917       0.10181664       0.45574904 </v>
   <v>       0.04090961       0.20337058       0.59142371 </v>
   <v>       0.03852482       0.25559102       0.59087039 </v>
   <v>       0.02028693       0.21796712       0.51999256 </v>
   <v>       0.46706666       0.75761887       0.57943629 </v>
   <v>       0.34179496       0.87112606       0.59157284 </v>
   <v>       0.36747971       0.76614352       0.56375982 </v>
   <v>       0.39672575       0.74795613       0.61987991 </v>
   <v>       0.39590701       0.80033586       0.63427181 </v>
   <v>       0.29770842       0.53035326       0.57912322 </v>
   <v>       0.53669084       0.65473715       0.59258761 </v>
   <v>       0.40618906       0.62974663       0.56377829 </v>
   <v>       0.35858103       0.60069667       0.61969651 </v>
   <v>       0.41157551       0.60126907       0.63451307 </v>
   <v>       0.23889897       0.69879246       0.57815344 </v>
   <v>       0.12404212       0.45946528       0.58946430 </v>
   <v>       0.22968403       0.59027671       0.56280123 </v>
   <v>       0.24787213       0.63764027       0.61913414 </v>
   <v>       0.19526880       0.58455473       0.63298619 </v>
   <v>       0.98793361       0.88271635       0.52585963 </v>
   <v>       0.11333521       0.77589155       0.47079110 </v>
   <v>       0.01586567       0.80080680       0.50713994 </v>
   <v>       0.04400465       0.82074184       0.58433340 </v>
   <v>       0.99041051       0.81902256       0.57005478 </v>
   <v>       0.90230621       0.00901825       0.52636180 </v>
   <v>       0.67007523       0.88390566       0.47251780 </v>
   <v>       0.79262352       0.98121966       0.50754739 </v>
   <v>       0.78423237       0.95319044       0.58487701 </v>
   <v>       0.83625708       0.00672169       0.57052658 </v>
   <v>       0.11417222       0.09511368       0.52633434 </v>
   <v>       0.22062765       0.32717961       0.47096313 </v>
   <v>       0.19579325       0.20509639       0.50759220 </v>
   <v>       0.17587689       0.21329077       0.58479292 </v>
   <v>       0.17773630       0.16145553       0.57057878 </v>
   <v>       0.31871924       0.80405529       0.39979953 </v>
   <v>       0.55531503       0.87498105       0.45618789 </v>
   <v>       0.41674244       0.79467624       0.39613573 </v>
   <v>       0.38173990       0.80647398       0.34157146 </v>
   <v>       0.43847827       0.85105032       0.36435859 </v>
   <v>       0.49277562       0.67849741       0.40123377 </v>
   <v>       0.32660149       0.44156600       0.45692551 </v>
   <v>       0.38539534       0.58086654       0.39694399 </v>
   <v>       0.43240063       0.61534954       0.34234655 </v>
   <v>       0.41947196       0.55843127       0.36552051 </v>
   <v>       0.19397780       0.50512704       0.39990718 </v>
   <v>       0.12177289       0.67020356       0.45490742 </v>
   <v>       0.20373355       0.61220793       0.39597454 </v>
   <v>       0.19113086       0.56540225       0.34092611 </v>
   <v>       0.14732479       0.57860536       0.36378833 </v>
   <v>       0.97890330       0.02058793       0.48670860 </v>
   <v>       0.97631145       0.94788838       0.48654430 </v>
   <v>       0.04900720       0.01806295       0.48664547 </v>
   <v>       0.17885885       0.76229788       0.50664763 </v>
   <v>       0.24985634       0.83519574       0.50972456 </v>
   <v>       0.25117700       0.76470125       0.50325945 </v>
   <v>       0.59072308       0.81819834       0.50809402 </v>
   <v>       0.59264484       0.74725873       0.51163625 </v>
   <v>       0.52081623       0.74569745       0.50469279 </v>
   <v>       0.23450852       0.40650008       0.50796263 </v>
   <v>       0.16161356       0.40451079       0.50964509 </v>
   <v>       0.23203890       0.47644136       0.50421187 </v>
   <v>       0.11768482       0.94281449       0.47938700 </v>
   <v>       0.83238295       0.87914160       0.48030260 </v>
   <v>       0.05374899       0.16449695       0.48007273 </v>
   <v>       0.39620035       0.86504101       0.55282815 </v>
   <v>       0.47617221       0.60042147       0.55359303 </v>
   <v>       0.13043343       0.52016742       0.55085279 </v>
   <v>       0.10580767       0.83311670       0.48671457 </v>
   <v>       0.73474743       0.89122015       0.48798250 </v>
   <v>       0.16330630       0.26245126       0.48683623 </v>
   <v>       0.49147848       0.86748654       0.48096209 </v>
   <v>       0.38310053       0.50536452       0.48176194 </v>
   <v>       0.12886894       0.61360600       0.47977751 </v>
   <v>       0.02533488       0.04091918       0.48691871 </v>
   <v>       0.95603497       0.97403022       0.48688162 </v>
   <v>       0.02285279       0.97159597       0.48671777 </v>
   <v>       0.20469881       0.74188191       0.50766542 </v>
   <v>       0.20309434       0.80902553       0.50847890 </v>
   <v>       0.27189689       0.81114152       0.50368356 </v>
   <v>       0.54443813       0.79221486       0.50911673 </v>
   <v>       0.61323570       0.79402646       0.51016991 </v>
   <v>       0.54656656       0.72505676       0.50530903 </v>
   <v>       0.25485444       0.45279849       0.50900089 </v>
   <v>       0.18779172       0.38395866       0.50915615 </v>
   <v>       0.18563538       0.45064141       0.50377629 </v>
   <v>       0.17669689       0.83354577       0.50934941 </v>
   <v>       0.12553787       0.87741578       0.50772630 </v>
   <v>       0.17155868       0.90237247       0.53240981 </v>
   <v>       0.19677037       0.87935100       0.53164206 </v>
   <v>       0.09413454       0.96513830       0.47350511 </v>
   <v>       0.19344901       0.95069223       0.56020102 </v>
   <v>       0.66417409       0.82042329       0.51092297 </v>
   <v>       0.75922749       0.87139146       0.50879860 </v>
   <v>       0.73807463       0.82533262       0.53343342 </v>
   <v>       0.68983082       0.80023841       0.53296543 </v>
   <v>       0.87824068       0.90269227       0.47414134 </v>
   <v>       0.76440699       0.80325153       0.56075290 </v>
   <v>       0.16318635       0.33301156       0.50992175 </v>
   <v>       0.11909781       0.23791577       0.50805768 </v>
   <v>       0.09423834       0.25905735       0.53278186 </v>
   <v>       0.11738827       0.30732790       0.53217672 </v>
   <v>       0.03156719       0.11859134       0.47412890 </v>
   <v>       0.04590132       0.23266303       0.56040171 </v>
   <v>       0.35333620       0.85877954       0.54921065 </v>
   <v>       0.45175530       0.84286541       0.51489570 </v>
   <v>       0.44218656       0.80434085       0.55579805 </v>
   <v>       0.47415238       0.78927346       0.55349618 </v>
   <v>       0.51499839       0.81344609       0.51630414 </v>
   <v>       0.39827382       0.77821429       0.59564562 </v>
   <v>       0.51280482       0.64335450       0.55023186 </v>
   <v>       0.39828915       0.54517393       0.51551397 </v>
   <v>       0.36934502       0.55497537       0.55600260 </v>
   <v>       0.32225782       0.52312465       0.55349907 </v>
   <v>       0.30551590       0.48217930       0.51650167 </v>
   <v>       0.38724740       0.59897971       0.59569404 </v>
   <v>       0.13696307       0.48370556       0.54751686 </v>
   <v>       0.15335092       0.59833950       0.51360975 </v>
   <v>       0.19189129       0.62717763       0.55455673 </v>
   <v>       0.20722486       0.67430181       0.55219435 </v>
   <v>       0.18326824       0.69116184       0.51492265 </v>
   <v>       0.21765285       0.60908634       0.59458053 </v>
   <v>       0.13047125       0.81175871       0.48795524 </v>
   <v>       0.09582229       0.89887922       0.50233006 </v>
   <v>       0.04819988       0.87475733       0.51964121 </v>
   <v>       0.02445607       0.89903626       0.51243671 </v>
   <v>       0.04709070       0.94490353       0.48996475 </v>
   <v>       0.02318188       0.82624678       0.54689858 </v>
   <v>       0.68871197       0.86665842       0.48948237 </v>
   <v>       0.81040458       0.90106901       0.50323240 </v>
   <v>       0.83400279       0.94875100       0.52037720 </v>
   <v>       0.88201804       0.97246794       0.51301873 </v>
   <v>       0.90513016       0.94978011       0.49043095 </v>
   <v>       0.81063914       0.97390999       0.54745416 </v>
   <v>       0.18480587       0.30850264       0.48823615 </v>
   <v>       0.09769359       0.18669684       0.50285227 </v>
   <v>       0.12191051       0.16329343       0.52016305 </v>
   <v>       0.09776660       0.11523317       0.51291736 </v>
   <v>       0.05193922       0.09188081       0.49039455 </v>
   <v>       0.17040998       0.18693499       0.54739331 </v>
   <v>       0.32301286       0.83393813       0.49709958 </v>
   <v>       0.41185585       0.85043331       0.50196802 </v>
   <v>       0.38707445       0.83274151       0.44151489 </v>
   <v>       0.34124501       0.82271033       0.44188670 </v>
   <v>       0.52316734       0.85401511       0.48375601 </v>
   <v>       0.40690389       0.82056138       0.38259119 </v>
   <v>       0.51829876       0.67390151       0.49843520 </v>
   <v>       0.44588996       0.58498116       0.50274899 </v>
   <v>       0.45304260       0.60995690       0.44246125 </v>
   <v>       0.48887136       0.65581748       0.44312721 </v>
   <v>       0.33786623       0.47379694       0.48434439 </v>
   <v>       0.42101484       0.59026364       0.38350901 </v>
   <v>       0.16276411       0.47881235       0.49632755 </v>
   <v>       0.14578652       0.55085146       0.50049752 </v>
   <v>       0.16441538       0.54427745       0.44060411 </v>
   <v>       0.17466158       0.50862005       0.44138615 </v>
   <v>       0.14260227       0.65886865       0.48247694 </v>
   <v>       0.17735001       0.57671839       0.38204084 </v>
  </varray>
 </structure>
 <calculation>
  <scstep>
   <time name="dav">  665.05  671.45</time>
   <time name="total">  665.42  671.82</time>
   <energy>
    <i name="alphaZ">     63.85539522 </i>
    <i name="ewald">  72274.25234915 </i>
    <i name="hartreedc"> -88165.67378992 </i>
    <i name="XCdc">   1805.47950562 </i>
    <i name="pawpsdc">  47656.10339885 </i>
    <i name="pawaedc"> -47748.18206537 </i>
    <i name="eentropy">     -0.00000000 </i>
    <i name="bandstr">  -6515.73505837 </i>
    <i name="atom">  19458.48960022 </i>
    <i name="e_fr_energy">  -1171.41066461 </i>
    <i name="e_wo_entrp">  -1171.41066461 </i>
    <i name="e_0_energy">  -1171.41066461 </i>
   </energy>
  </scstep>
  <scstep>
   <time name="dav">  728.17  735.24</time>
   <time name="total">  728.20  735.27</time>
   <energy>
    <i name="e_fr_energy">  -1171.95374237 </i>
    <i name="e_wo_entrp">  -1171.95374237 </i>
    <i name="e_0_energy">  -1171.95374237 </i>
   </energy>
  </scstep>
  <scstep>
   <time name="dav">  833.77  841.63</time>
   <time name="total">  833.79  841.65</time>
   <energy>
    <i name="e_fr_energy">  -1171.97009942 </i>
    <i name="e_wo_entrp">  -1171.97009942 </i>
    <i name="e_0_energy">  -1171.97009942 </i>
   </energy>
  </scstep>
  <scstep>
   <time name="dav">  734.59  741.57</time>
   <time name="total">  734.61  741.59</time>
   <energy>
    <i name="e_fr_energy">  -1171.97037333 </i>
    <i name="e_wo_entrp">  -1171.97037333 </i>
    <i name="e_0_energy">  -1171.97037333 </i>
   </energy>
  </scstep>
  <scstep>
   <time name="dav">  681.60  688.22</time>
   <time name="total">  681.62  688.23</time>
   <energy>
    <i name="e_fr_energy">  -1171.97038601 </i>
    <i name="e_wo_entrp">  -1171.97038601 </i>
    <i name="e_0_energy">  -1171.97038601 </i>
   </energy>
  </scstep>
  <scstep>
   <time name="dav">  561.65  567.01</time>
   <time name="total">  561.67  567.04</time>
   <energy>
    <i name="alphaZ">     63.85539522 </i>
    <i name="ewald">  72274.25234915 </i>
    <i name="hartreedc"> -88165.67378992 </i>
    <i name="XCdc">   1805.47950562 </i>
    <i name="pawpsdc">  47656.10339885 </i>
    <i name="pawaedc"> -47748.18206537 </i>
    <i name="eentropy">     -0.00000000 </i>
    <i name="bandstr">  -6516.29478024 </i>
    <i name="atom">  19458.48960022 </i>
    <i name="e_fr_energy">  -1171.97038647 </i>
    <i name="e_wo_entrp">  -1171.97038647 </i>
    <i name="e_0_energy">  -1171.97038647 </i>
   </energy>
  </scstep>
  <structure>
   <crystal>
    <varray name="basis" >
     <v>      33.39648079      -0.00690460       0.00000000 </v>
     <v>     -16.69958740      28.89922093       0.00000000 </v>
     <v>       0.00000000       0.00000000      20.00000000 </v>
    </varray>
    <i name="volume">  19300.33945291 </i>
    <varray name="rec_basis" >
     <v>       0.02994685       0.01730497       0.00000000 </v>
     <v>       0.00000715       0.03460714       0.00000000 </v>
     <v>       0.00000000       0.00000000       0.05000000 </v>
    </varray>
   </crystal>
   <varray name="positions" >
    <v>       0.23247905       0.89679774       0.54932442 </v>
    <v>       0.11301062       0.00067695       0.45501013 </v>
    <v>       0.16904505       0.95562147       0.59102523 </v>
    <v>       0.22362260       0.95800150       0.59092857 </v>
    <v>       0.20457941       0.97642039       0.51990415 </v>
    <v>       0.67148138       0.76450526       0.55062589 </v>
    <v>       0.89480527       0.88377010       0.45556139 </v>
    <v>       0.79384722       0.82751762       0.59157256 </v>
    <v>       0.74152110       0.77297306       0.59134094 </v>
    <v>       0.77886490       0.79221367       0.52017539 </v>
    <v>       0.10005591       0.32567293       0.54996406 </v>
    <v>       0.99601917       0.10181664       0.45574904 </v>
    <v>       0.04090961       0.20337058       0.59142371 </v>
    <v>       0.03852482       0.25559102       0.59087039 </v>
    <v>       0.02028693       0.21796712       0.51999256 </v>
    <v>       0.46706666       0.75761887       0.57943629 </v>
    <v>       0.34179496       0.87112606       0.59157284 </v>
    <v>       0.36747971       0.76614352       0.56375982 </v>
    <v>       0.39672575       0.74795613       0.61987991 </v>
    <v>       0.39590701       0.80033586       0.63427181 </v>
    <v>       0.29770842       0.53035326       0.57912322 </v>
    <v>       0.53669084       0.65473715       0.59258761 </v>
    <v>       0.40618906       0.62974663       0.56377829 </v>
    <v>       0.35858103       0.60069667       0.61969651 </v>
    <v>       0.41157551       0.60126907       0.63451307 </v>
    <v>       0.23889897       0.69879246       0.57815344 </v>
    <v>       0.12404212       0.45946528       0.58946430 </v>
    <v>       0.22968403       0.59027671       0.56280123 </v>
    <v>       0.24787213       0.63764027       0.61913414 </v>
    <v>       0.19526880       0.58455473       0.63298619 </v>
    <v>       0.98793361       0.88271635       0.52585963 </v>
    <v>       0.11333521       0.77589155       0.47079110 </v>
    <v>       0.01586567       0.80080680       0.50713994 </v>
    <v>       0.04400465       0.82074184       0.58433340 </v>
    <v>       0.99041051       0.81902256       0.57005478 </v>
    <v>       0.90230621       0.00901825       0.52636180 </v>
    <v>       0.67007523       0.88390566       0.47251780 </v>
    <v>       0.79262352       0.98121966       0.50754739 </v>
    <v>       0.78423237       0.95319044       0.58487701 </v>
    <v>       0.83625708       0.00672169       0.57052658 </v>
    <v>       0.11417222       0.09511368       0.52633434 </v>
    <v>       0.22062765       0.32717961       0.47096313 </v>
    <v>       0.19579325       0.20509639       0.50759220 </v>
    <v>       0.17587689       0.21329077       0.58479292 </v>
    <v>       0.17773630       0.16145553       0.57057878 </v>
    <v>       0.31871924       0.80405529       0.39979953 </v>
    <v>       0.55531503       0.87498105       0.45618789 </v>
    <v>       0.41674244       0.79467624       0.39613573 </v>
    <v>       0.38173990       0.80647398       0.34157146 </v>
    <v>       0.43847827       0.85105032       0.36435859 </v>
    <v>       0.49277562       0.67849741       0.40123377 </v>
    <v>       0.32660149       0.44156600       0.45692551 </v>
    <v>       0.38539534       0.58086654       0.39694399 </v>
    <v>       0.43240063       0.61534954       0.34234655 </v>
    <v>       0.41947196       0.55843127       0.36552051 </v>
    <v>       0.19397780       0.50512704       0.39990718 </v>
    <v>       0.12177289       0.67020356       0.45490742 </v>
    <v>       0.20373355       0.61220793       0.39597454 </v>
    <v>       0.19113086       0.56540225       0.34092611 </v>
    <v>       0.14732479       0.57860536       0.36378833 </v>
    <v>       0.97890330       0.02058793       0.48670860 </v>
    <v>       0.97631145       0.94788838       0.48654430 </v>
    <v>       0.04900720       0.01806295       0.48664547 </v>
    <v>       0.17885885       0.76229788       0.50664763 </v>
    <v>       0.24985634       0.83519574       0.50972456 </v>
    <v>       0.25117700       0.76470125       0.50325945 </v>
    <v>       0.59072308       0.81819834       0.50809402 </v>
    <v>       0.59264484       0.74725873       0.51163625 </v>
    <v>       0.52081623       0.74569745       0.50469279 </v>
    <v>       0.23450852       0.40650008       0.50796263 </v>
    <v>       0.16161356       0.40451079       0.50964509 </v>
    <v>       0.23203890       0.47644136       0.50421187 </v>
    <v>       0.11768482       0.94281449       0.47938700 </v>
    <v>       0.83238295       0.87914160       0.48030260 </v>
    <v>       0.05374899       0.16449695       0.48007273 </v>
    <v>       0.39620035       0.86504101       0.55282815 </v>
    <v>       0.47617221       0.60042147       0.55359303 </v>
    <v>       0.13043343       0.52016742       0.55085279 </v>
    <v>       0.10580767       0.83311670       0.48671457 </v>
    <v>       0.73474743       0.89122015       0.48798250 </v>
    <v>       0.16330630       0.26245126       0.48683623 </v>
    <v>       0.49147848       0.86748654       0.48096209 </v>
    <v>       0.38310053       0.50536452       0.48176194 </v>
    <v>       0.12886894       0.61360600       0.47977751 </v>
    <v>       0.02533488       0.04091918       0.48691871 </v>
    <v>       0.95603497       0.97403022       0.48688162 </v>
    <v>       0.02285279       0.97159597       0.48671777 </v>
    <v>       0.20469881       0.74188191       0.50766542 </v>
    <v>       0.20309434       0.80902553       0.50847890 </v>
    <v>       0.27189689       0.81114152       0.50368356 </v>
    <v>       0.54443813       0.79221486       0.50911673 </v>
    <v>       0.61323570       0.79402646       0.51016991 </v>
    <v>       0.54656656       0.72505676       0.50530903 </v>
    <v>       0.25485444       0.45279849       0.50900089 </v>
    <v>       0.18779172       0.38395866       0.50915615 </v>
    <v>       0.18563538       0.45064141       0.50377629 </v>
    <v>       0.17669689       0.83354577       0.50934941 </v>
    <v>       0.12553787       0.87741578       0.50772630 </v>
    <v>       0.17155868       0.90237247       0.53240981 </v>
    <v>       0.19677037       0.87935100       0.53164206 </v>
    <v>       0.09413454       0.96513830       0.47350511 </v>
    <v>       0.19344901       0.95069223       0.56020102 </v>
    <v>       0.66417409       0.82042329       0.51092297 </v>
    <v>       0.75922749       0.87139146       0.50879860 </v>
    <v>       0.73807463       0.82533262       0.53343342 </v>
    <v>       0.68983082       0.80023841       0.53296543 </v>
    <v>       0.87824068       0.90269227       0.47414134 </v>
    <v>       0.76440699       0.80325153       0.56075290 </v>
    <v>       0.16318635       0.33301156       0.50992175 </v>
    <v>       0.11909781       0.23791577       0.50805768 </v>
    <v>       0.09423834       0.25905735       0.53278186 </v>
    <v>       0.11738827       0.30732790       0.53217672 </v>
    <v>       0.03156719       0.11859134       0.47412890 </v>
    <v>       0.04590132       0.23266303       0.56040171 </v>
    <v>       0.35333620       0.85877954       0.54921065 </v>
    <v>       0.45175530       0.84286541       0.51489570 </v>
    <v>       0.44218656       0.80434085       0.55579805 </v>
    <v>       0.47415238       0.78927346       0.55349618 </v>
    <v>       0.51499839       0.81344609       0.51630414 </v>
    <v>       0.39827382       0.77821429       0.59564562 </v>
    <v>       0.51280482       0.64335450       0.55023186 </v>
    <v>       0.39828915       0.54517393       0.51551397 </v>
    <v>       0.36934502       0.55497537       0.55600260 </v>
    <v>       0.32225782       0.52312465       0.55349907 </v>
    <v>       0.30551590       0.48217930       0.51650167 </v>
    <v>       0.38724740       0.59897971       0.59569404 </v>
    <v>       0.13696307       0.48370556       0.54751686 </v>
    <v>       0.15335092       0.59833950       0.51360975 </v>
    <v>       0.19189129       0.62717763       0.55455673 </v>
    <v>       0.20722486       0.67430181       0.55219435 </v>
    <v>       0.18326824       0.69116184       0.51492265 </v>
    <v>       0.21765285       0.60908634       0.59458053 </v>
    <v>       0.13047125       0.81175871       0.48795524 </v>
    <v>       0.09582229       0.89887922       0.50233006 </v>
    <v>       0.04819988       0.87475733       0.51964121 </v>
    <v>       0.02445607       0.89903626       0.51243671 </v>
    <v>       0.04709070       0.94490353       0.48996475 </v>
    <v>       0.02318188       0.82624678       0.54689858 </v>
    <v>       0.68871197       0.86665842       0.48948237 </v>
    <v>       0.81040458       0.90106901       0.50323240 </v>
    <v>       0.83400279       0.94875100       0.52037720 </v>
    <v>       0.88201804       0.97246794       0.51301873 </v>
    <v>       0.90513016       0.94978011       0.49043095 </v>
    <v>       0.81063914       0.97390999       0.54745416 </v>
    <v>       0.18480587       0.30850264       0.48823615 </v>
    <v>       0.09769359       0.18669684       0.50285227 </v>
    <v>       0.12191051       0.16329343       0.52016305 </v>
    <v>       0.09776660       0.11523317       0.51291736 </v>
    <v>       0.05193922       0.09188081       0.49039455 </v>
    <v>       0.17040998       0.18693499       0.54739331 </v>
    <v>       0.32301286       0.83393813       0.49709958 </v>
    <v>       0.41185585       0.85043331       0.50196802 </v>
    <v>       0.38707445       0.83274151       0.44151489 </v>
    <v>       0.34124501       0.82271033       0.44188670 </v>
    <v>       0.52316734       0.85401511       0.48375601 </v>
    <v>       0.40690389       0.82056138       0.38259119 </v>
    <v>       0.51829876       0.67390151       0.49843520 </v>
    <v>       0.44588996       0.58498116       0.50274899 </v>
    <v>       0.45304260       0.60995690       0.44246125 </v>
    <v>       0.48887136       0.65581748       0.44312721 </v>
    <v>       0.33786623       0.47379694       0.48434439 </v>
    <v>       0.42101484       0.59026364       0.38350901 </v>
    <v>       0.16276411       0.47881235       0.49632755 </v>
    <v>       0.14578652       0.55085146       0.50049752 </v>
    <v>       0.16441538       0.54427745       0.44060411 </v>
    <v>       0.17466158       0.50862005       0.44138615 </v>
    <v>       0.14260227       0.65886865       0.48247694 </v>
    <v>       0.17735001       0.57671839       0.38204084 </v>
   </varray>
  </structure>
  <varray name="forces" >
   <v>      -0.00015073       0.00117905      -0.00129957 </v>
   <v>      -0.00013205       0.00155871      -0.00007802 </v>
   <v>       0.00117442       0.00181899      -0.00046503 </v>
   <v>       0.00239891       0.00201812      -0.00241232 </v>
   <v>       0.00258472      -0.00012330      -0.00258984 </v>
   <v>      -0.00085996       0.00110506      -0.00121537 </v>
   <v>       0.00193123       0.00306447      -0.00068583 </v>
   <v>      -0.00009386      -0.00147832      -0.00010444 </v>
   <v>      -0.00164563      -0.00247110      -0.00121930 </v>
   <v>      -0.00095479      -0.00071839      -0.00191037 </v>
   <v>       0.00088861      -0.00374578      -0.00327242 </v>
   <v>      -0.00100837      -0.00271292      -0.00168888 </v>
   <v>      -0.00300658      -0.00134828      -0.00053789 </v>
   <v>      -0.00157473       0.00200051      -0.00109413 </v>
   <v>      -0.00130438      -0.00005359      -0.00225417 </v>
   <v>      -0.00002319       0.00162022      -0.00066347 </v>
   <v>       0.00091737      -0.00171836      -0.00019832 </v>
   <v>       0.00117706       0.00078898       0.00135732 </v>
   <v>       0.00016666       0.00095048      -0.00013805 </v>
   <v>       0.00166546      -0.00108079      -0.00032204 </v>
   <v>      -0.00065730       0.00188537       0.00044259 </v>
   <v>       0.00095612       0.00315630       0.00122209 </v>
   <v>       0.00002947      -0.00136624       0.00053495 </v>
   <v>       0.00139457      -0.00057535      -0.00059157 </v>
   <v>      -0.00101128       0.00157476      -0.00041590 </v>
   <v>       0.00069953      -0.00124114       0.00049247 </v>
   <v>      -0.00141158      -0.00032305       0.00005505 </v>
   <v>      -0.00040770       0.00069532       0.00101300 </v>
   <v>      -0.00234244      -0.00018271      -0.00195468 </v>
   <v>       0.00118837       0.00067173      -0.00063201 </v>
   <v>       0.00295746      -0.00111319       0.00105230 </v>
   <v>      -0.00138156      -0.00164757       0.00194763 </v>
   <v>      -0.00065541      -0.00142759      -0.00205669 </v>
   <v>       0.00018366      -0.00195820       0.00029896 </v>
   <v>       0.00089026      -0.00279197       0.00091622 </v>
   <v>      -0.00145979       0.00120165       0.00005267 </v>
   <v>      -0.00252741      -0.00137886      -0.00142927 </v>
   <v>      -0.00250547       0.00311718       0.00145010 </v>
   <v>       0.00050592      -0.00035760      -0.00133639 </v>
   <v>      -0.00007965      -0.00068473      -0.00014404 </v>
   <v>      -0.00174844       0.00079973      -0.00109050 </v>
   <v>       0.00193620       0.00244524      -0.00120374 </v>
   <v>       0.00104623       0.00061229      -0.00074184 </v>
   <v>       0.00005820      -0.00002960      -0.00108318 </v>
   <v>      -0.00021458       0.00103545      -0.00107879 </v>
   <v>       0.00118220       0.00013130       0.00033505 </v>
   <v>       0.00148998       0.00152906      -0.00116426 </v>
   <v>      -0.00320431       0.00069597       0.00074679 </v>
   <v>       0.00201197       0.00326535       0.00144830 </v>
   <v>       0.00005193      -0.00360089       0.00013090 </v>
   <v>      -0.00038567      -0.00117145       0.00012875 </v>
   <v>       0.00015427      -0.00030225       0.00141185 </v>
   <v>       0.00023796       0.00249791       0.00177986 </v>
   <v>       0.00052987       0.00028517       0.00110423 </v>
   <v>      -0.00073874       0.00033860      -0.00143453 </v>
   <v>       0.00145996       0.00098265       0.00064862 </v>
   <v>      -0.00202804      -0.00004820       0.00332755 </v>
   <v>      -0.00104564       0.00020760       0.00448495 </v>
   <v>      -0.00008168       0.00170079       0.00003165 </v>
   <v>      -0.00012446       0.00066746       0.00046485 </v>
   <v>      -0.00042449       0.00122146       0.00447421 </v>
   <v>       0.00270527      -0.00040861       0.00213331 </v>
   <v>      -0.00088397      -0.00454723       0.00230055 </v>
   <v>       0.00423187       0.00008297       0.00068708 </v>
   <v>      -0.00269930      -0.00330764       0.00057696 </v>
   <v>      -0.00165692       0.00017603      -0.00014118 </v>
   <v>       0.00106928      -0.00193197      -0.00079938 </v>
   <v>      -0.00331199       0.00167487      -0.00085148 </v>
   <v>       0.00027952      -0.00309776       0.00137540 </v>
   <v>       0.00023526      -0.00018191       0.00127285 </v>
   <v>       0.00375890       0.00056088      -0.00057044 </v>
   <v>       0.00200039      -0.00189783       0.00030085 </v>
   <v>      -0.00012930       0.00016546      -0.00149617 </v>
   <v>      -0.00096544      -0.00025080       0.00018389 </v>
   <v>      -0.00000946       0.00001449       0.00063255 </v>
   <v>       0.00286876       0.00280458       0.00195780 </v>
   <v>       0.00002874      -0.00271771       0.00041869 </v>
   <v>      -0.00095639       0.00224469       0.00211520 </v>
   <v>       0.00382503       0.00201614      -0.00160505 </v>
   <v>       0.00128430      -0.00046048      -0.00167305 </v>
   <v>      -0.00153414      -0.00579550       0.00084480 </v>
   <v>      -0.00292638       0.00221633      -0.00296367 </v>
   <v>       0.00010646       0.00206105      -0.00076725 </v>
   <v>      -0.00406679       0.00314322      -0.00059932 </v>
   <v>      -0.00199161       0.00018619      -0.00121676 </v>
   <v>       0.00220240       0.00354382      -0.00039717 </v>
   <v>       0.00149544       0.00038724      -0.00044214 </v>
   <v>       0.00123201      -0.00061711       0.00117933 </v>
   <v>       0.00041560       0.00025914       0.00095567 </v>
   <v>      -0.00332245      -0.00104128       0.00183107 </v>
   <v>       0.00556356      -0.00021872      -0.00081471 </v>
   <v>       0.00197220       0.00021437       0.00058174 </v>
   <v>      -0.00039040       0.00512300       0.00000261 </v>
   <v>      -0.00232306      -0.00059514      -0.00117916 </v>
   <v>      -0.00227812       0.00095617      -0.00194807 </v>
   <v>      -0.00011963      -0.00010291      -0.00143906 </v>
   <v>      -0.00122807       0.00145276      -0.00225892 </v>
   <v>       0.00045179      -0.00111374       0.00017667 </v>
   <v>       0.00108854      -0.00349907      -0.00429202 </v>
   <v>      -0.00294517       0.00163833       0.00001978 </v>
   <v>      -0.00412713      -0.00280176       0.00116497 </v>
   <v>       0.00048347       0.00014045      -0.00246443 </v>
   <v>       0.00048835      -0.00478699      -0.00024867 </v>
   <v>       0.00197503      -0.00027467      -0.00181933 </v>
   <v>      -0.00365250       0.00011169      -0.00315567 </v>
   <v>      -0.00344111      -0.00222887      -0.00068289 </v>
   <v>       0.00084657       0.00082765       0.00263391 </v>
   <v>       0.00187723      -0.00127650      -0.00097717 </v>
   <v>       0.00058508       0.00100271       0.00082647 </v>
   <v>      -0.00060426       0.00004206      -0.00072509 </v>
   <v>       0.00445109      -0.00332348      -0.00119953 </v>
   <v>      -0.00388871       0.00302662       0.00012607 </v>
   <v>       0.00225963       0.00046577       0.00199981 </v>
   <v>      -0.00116821       0.00099115      -0.00169745 </v>
   <v>      -0.00177495       0.00003821      -0.00026298 </v>
   <v>       0.00064391      -0.00006887       0.00036362 </v>
   <v>      -0.00219485      -0.00097951       0.00011568 </v>
   <v>      -0.00077978      -0.00139753       0.00020970 </v>
   <v>       0.00105586      -0.00114144      -0.00034324 </v>
   <v>       0.00008366      -0.00160780       0.00064381 </v>
   <v>       0.00077046      -0.00005080      -0.00025960 </v>
   <v>       0.00042528      -0.00040955      -0.00037840 </v>
   <v>      -0.00054866      -0.00017338       0.00085159 </v>
   <v>       0.00237884       0.00075436      -0.00021151 </v>
   <v>      -0.00116914      -0.00044455       0.00089957 </v>
   <v>       0.00060456       0.00273266       0.00065972 </v>
   <v>      -0.00062370      -0.00005552       0.00114230 </v>
   <v>       0.00276743      -0.00201491       0.00282442 </v>
   <v>      -0.00043103       0.00249149      -0.00027958 </v>
   <v>       0.00281833      -0.00209890       0.00122681 </v>
   <v>      -0.00172470       0.00034294      -0.00103412 </v>
   <v>       0.00375272      -0.00119027       0.00088272 </v>
   <v>      -0.00150243       0.00215565       0.00158561 </v>
   <v>       0.00037056      -0.00251645       0.00021170 </v>
   <v>       0.00260951       0.00109748      -0.00023165 </v>
   <v>      -0.00296543      -0.00296173       0.00370964 </v>
   <v>      -0.00094200       0.00207321       0.00129336 </v>
   <v>      -0.00015734      -0.00216967      -0.00031306 </v>
   <v>       0.00135548      -0.00218549       0.00089893 </v>
   <v>       0.00245445       0.00109341       0.00015894 </v>
[...]
       <r>   -14.7094     0.0000   168.0000 </r>
       <r>   -14.6110     0.0000   168.0000 </r>
       <r>   -14.5126     0.0000   168.0000 </r>
       <r>   -14.4142    16.6547   169.6387 </r>
       <r>   -14.3158    34.8775   173.9989 </r>
       <r>   -14.2174    14.5179   175.4285 </r>
       <r>   -14.1190    30.4732   180.0003 </r>
       <r>   -14.0206    40.6489   184.0000 </r>
       <r>   -13.9222     0.0000   184.0000 </r>
       <r>   -13.8238     0.0000   184.0000 </r>
       <r>   -13.7254     0.0000   184.0000 </r>
       <r>   -13.6270    44.5677   188.3853 </r>
       <r>   -13.5286     0.0000   190.0000 </r>
       <r>   -13.4302    20.2768   191.9951 </r>
       <r>   -13.3319     0.0000   192.0000 </r>
       <r>   -13.2335     0.0000   192.0000 </r>
       <r>   -13.1351     0.0000   192.0000 </r>
       <r>   -13.0367     0.0000   192.0000 </r>
       <r>   -12.9383    20.6307   194.0300 </r>
       <r>   -12.8399    13.4575   199.3242 </r>
       <r>   -12.7415    33.8991   203.3355 </r>
       <r>   -12.6431    17.6562   205.7373 </r>
       <r>   -12.5447    27.3187   208.5890 </r>
       <r>   -12.4463    12.3657   209.9501 </r>
       <r>   -12.3479    66.2440   216.7183 </r>
       <r>   -12.2495     5.6803   218.1258 </r>
       <r>   -12.1511    33.7812   222.6929 </r>
       <r>   -12.0527    42.3137   227.3636 </r>
       <r>   -11.9543    10.4816   229.0313 </r>
       <r>   -11.8559     0.0000   230.0000 </r>
       <r>   -11.7575     0.0634   230.0062 </r>
       <r>   -11.6591    36.0144   234.4108 </r>
       <r>   -11.5607    31.8394   238.0000 </r>
       <r>   -11.4623    25.4529   240.5045 </r>
       <r>   -11.3639    13.2100   242.0000 </r>
       <r>   -11.2655     4.6460   242.4571 </r>
       <r>   -11.1671    28.2878   246.0505 </r>
       <r>   -11.0687    21.8829   249.1200 </r>
       <r>   -10.9704     5.6117   250.1188 </r>
       <r>   -10.8720    25.0803   254.6361 </r>
       <r>   -10.7736    12.1951   256.0000 </r>
       <r>   -10.6752    40.6243   259.9973 </r>
       <r>   -10.5768     0.0018   260.0002 </r>
       <r>   -10.4784    66.1278   266.5069 </r>
       <r>   -10.3800    44.2093   276.3501 </r>
       <r>   -10.2816    60.9781   284.0000 </r>
       <r>   -10.1832     0.0000   284.0000 </r>
       <r>   -10.0848    41.8870   288.1215 </r>
       <r>    -9.9864   100.4493   299.8838 </r>
       <r>    -9.8880    20.5591   304.0229 </r>
       <r>    -9.7896    46.5132   310.8106 </r>
       <r>    -9.6912    20.3269   314.0001 </r>
       <r>    -9.5928    60.9799   320.0002 </r>
       <r>    -9.4944    88.2592   329.2541 </r>
       <r>    -9.3960   142.6970   344.0410 </r>
       <r>    -9.2976    64.0873   354.3067 </r>
       <r>    -9.1992   130.3131   368.8230 </r>
       <r>    -9.1008    69.4290   378.8315 </r>
       <r>    -9.0024    40.6522   384.0000 </r>
       <r>    -8.9040    20.7378   386.0405 </r>
       <r>    -8.8056    14.4728   389.4241 </r>
       <r>    -8.7073    40.6620   393.7680 </r>
       <r>    -8.6089    40.6522   398.0000 </r>
       <r>    -8.5105    25.1825   400.4778 </r>
       <r>    -8.4121     0.0070   404.0007 </r>
       <r>    -8.3137    20.3191   406.0000 </r>
       <r>    -8.2153    90.1942   414.8747 </r>
       <r>    -8.1169    66.8310   422.5759 </r>
       <r>    -8.0185    36.2219   428.0000 </r>
       <r>    -7.9201     0.0000   428.0000 </r>
       <r>    -7.8217     0.0000   428.0000 </r>
       <r>    -7.7233     0.0000   428.0000 </r>
       <r>    -7.6249     0.0000   428.0000 </r>
       <r>    -7.5265     0.0000   428.0000 </r>
       <r>    -7.4281     0.0000   428.0000 </r>
       <r>    -7.3297     0.0000   428.0000 </r>
       <r>    -7.2313     0.0000   428.0000 </r>
       <r>    -7.1329     0.0000   428.0000 </r>
       <r>    -7.0345     0.0000   428.0000 </r>
       <r>    -6.9361    95.7142   437.4179 </r>
       <r>    -6.8377    37.8213   443.7217 </r>
       <r>    -6.7393    21.0699   448.0732 </r>
       <r>    -6.6409     0.0000   452.0000 </r>
       <r>    -6.5425     0.0000   452.0000 </r>
       <r>    -6.4442     0.7052   452.0694 </r>
       <r>    -6.3458    86.2971   464.0000 </r>
       <r>    -6.2474    20.5865   466.0256 </r>
       <r>    -6.1490    13.7921   470.0279 </r>
       <r>    -6.0506    76.3141   479.7781 </r>
       <r>    -5.9522    40.5703   485.9978 </r>
       <r>    -5.8538     0.0002   486.0000 </r>
       <r>    -5.7554   117.3163   497.5434 </r>
       <r>    -5.6570    60.8952   503.9929 </r>
       <r>    -5.5586    20.3831   506.0056 </r>
       <r>    -5.4602    95.4902   515.9980 </r>
       <r>    -5.3618     0.0000   516.0000 </r>
       <r>    -5.2634     0.0000   516.0000 </r>
       <r>    -5.1650     0.0000   516.0000 </r>
       <r>    -5.0666     0.0000   516.0000 </r>
       <r>    -4.9682     0.0000   516.0000 </r>
       <r>    -4.8698     0.0000   516.0000 </r>
       <r>    -4.7714     0.0000   516.0000 </r>
       <r>    -4.6730     0.0000   516.0000 </r>
       <r>    -4.5746     0.0000   516.0000 </r>
       <r>    -4.4762     0.0000   516.0000 </r>
       <r>    -4.3778     0.0000   516.0000 </r>
       <r>    -4.2794     0.0000   516.0000 </r>
       <r>    -4.1810     0.0000   516.0000 </r>
       <r>    -4.0827     0.0000   516.0000 </r>
       <r>    -3.9843     0.0000   516.0000 </r>
       <r>    -3.8859     0.0000   516.0000 </r>
       <r>    -3.7875     0.0000   516.0000 </r>
       <r>    -3.6891     0.0000   516.0000 </r>
       <r>    -3.5907     0.0000   516.0000 </r>
       <r>    -3.4923     0.0000   516.0000 </r>
       <r>    -3.3939     0.0000   516.0000 </r>
       <r>    -3.2955     0.0000   516.0000 </r>
       <r>    -3.1971     0.0000   516.0000 </r>
       <r>    -3.0987     0.0000   516.0000 </r>
       <r>    -3.0003    40.6522   520.0000 </r>
       <r>    -2.9019     9.4481   520.9297 </r>
       <r>    -2.8035     4.0918   522.4026 </r>
       <r>    -2.7051     7.1120   524.0000 </r>
       <r>    -2.6067    29.4544   526.8982 </r>
       <r>    -2.5083    12.2647   528.8742 </r>
       <r>    -2.4099     0.0000   532.0000 </r>
       <r>    -2.3115     0.0000   532.0000 </r>
       <r>    -2.2131     0.0000   532.0000 </r>
       <r>    -2.1147     0.0000   532.0000 </r>
       <r>    -2.0163     0.0002   532.0000 </r>
       <r>    -1.9179    16.4445   533.6181 </r>
       <r>    -1.8196    26.1257   536.3041 </r>
       <r>    -1.7212     8.8070   537.2999 </r>
       <r>    -1.6228    20.3261   540.0000 </r>
       <r>    -1.5244    40.1318   543.9488 </r>
       <r>    -1.4260    20.9987   546.0662 </r>
       <r>    -1.3276   101.3456   561.9733 </r>
       <r>    -1.2292    17.2691   563.9996 </r>
       <r>    -1.1308     0.0000   564.0000 </r>
       <r>    -1.0324    19.1847   565.8877 </r>
       <r>    -0.9340    28.0648   568.7615 </r>
       <r>    -0.8356     6.4250   570.0000 </r>
       <r>    -0.7372    40.6299   573.9978 </r>
       <r>    -0.6388     3.3657   574.3312 </r>
       <r>    -0.5404     0.0000   576.0000 </r>
       <r>    -0.4420     0.0000   576.0000 </r>
       <r>    -0.3436    20.1081   577.9785 </r>
       <r>    -0.2452    36.0249   581.5447 </r>
       <r>    -0.1468    34.2480   586.0035 </r>
       <r>    -0.0484    17.5169   587.9907 </r>
       <r>     0.0500    30.7566   593.0263 </r>
       <r>     0.1484    48.1596   599.4722 </r>
       <r>     0.2468    41.1913   604.0530 </r>
       <r>     0.3452    42.6908   609.6352 </r>
       <r>     0.4435    40.1237   614.4483 </r>
       <r>     0.5419    48.0627   620.2966 </r>
       <r>     0.6403    88.5622   629.7821 </r>
       <r>     0.7387    80.5110   639.7896 </r>
       <r>     0.8371   103.8538   652.0542 </r>
       <r>     0.9355    81.1560   662.6859 </r>
       <r>     1.0339    91.1481   674.0706 </r>
       <r>     1.1323   116.0299   687.8525 </r>
       <r>     1.2307   111.8497   701.4072 </r>
       <r>     1.3291     5.4177   704.0000 </r>
       <r>     1.4275     0.0000   704.0000 </r>
       <r>     1.5259     0.0000   704.0000 </r>
       <r>     1.6243     0.0000   704.0000 </r>
       <r>     1.7227     0.0000   704.0000 </r>
       <r>     1.8211     0.0000   704.0000 </r>
       <r>     1.9195     0.0000   704.0000 </r>
       <r>     2.0179     0.0000   704.0000 </r>
       <r>     2.1163     0.0000   704.0000 </r>
       <r>     2.2147     0.0000   704.0000 </r>
       <r>     2.3131     0.0000   704.0000 </r>
       <r>     2.4115     0.0000   704.0000 </r>
       <r>     2.5099     0.0000   704.0000 </r>
       <r>     2.6083     0.0000   704.0000 </r>
      </set>
     </set>
    </array>
   </total>
  </dos>
 </calculation>
 <structure name="finalpos" >
  <crystal>
   <varray name="basis" >
    <v>      33.39648079      -0.00690460       0.00000000 </v>
    <v>     -16.69958740      28.89922093       0.00000000 </v>
    <v>       0.00000000       0.00000000      20.00000000 </v>
   </varray>
   <i name="volume">  19300.33945291 </i>
   <varray name="rec_basis" >
    <v>       0.02994685       0.01730497       0.00000000 </v>
    <v>       0.00000715       0.03460714       0.00000000 </v>
    <v>       0.00000000       0.00000000       0.05000000 </v>
   </varray>
  </crystal>
  <varray name="positions" >
   <v>       0.23247905       0.89679774       0.54932442 </v>
   <v>       0.11301062       0.00067695       0.45501013 </v>
   <v>       0.16904505       0.95562147       0.59102523 </v>
   <v>       0.22362260       0.95800150       0.59092857 </v>
   <v>       0.20457941       0.97642039       0.51990415 </v>
   <v>       0.67148138       0.76450526       0.55062589 </v>
   <v>       0.89480527       0.88377010       0.45556139 </v>
   <v>       0.79384722       0.82751762       0.59157256 </v>
   <v>       0.74152110       0.77297306       0.59134094 </v>
   <v>       0.77886490       0.79221367       0.52017539 </v>
   <v>       0.10005591       0.32567293       0.54996406 </v>
   <v>       0.99601917       0.10181664       0.45574904 </v>
   <v>       0.04090961       0.20337058       0.59142371 </v>
   <v>       0.03852482       0.25559102       0.59087039 </v>
   <v>       0.02028693       0.21796712       0.51999256 </v>
   <v>       0.46706666       0.75761887       0.57943629 </v>
   <v>       0.34179496       0.87112606       0.59157284 </v>
   <v>       0.36747971       0.76614352       0.56375982 </v>
   <v>       0.39672575       0.74795613       0.61987991 </v>
   <v>       0.39590701       0.80033586       0.63427181 </v>
   <v>       0.29770842       0.53035326       0.57912322 </v>
   <v>       0.53669084       0.65473715       0.59258761 </v>
   <v>       0.40618906       0.62974663       0.56377829 </v>
   <v>       0.35858103       0.60069667       0.61969651 </v>
   <v>       0.41157551       0.60126907       0.63451307 </v>
   <v>       0.23889897       0.69879246       0.57815344 </v>
   <v>       0.12404212       0.45946528       0.58946430 </v>
   <v>       0.22968403       0.59027671       0.56280123 </v>
   <v>       0.24787213       0.63764027       0.61913414 </v>
   <v>       0.19526880       0.58455473       0.63298619 </v>
   <v>       0.98793361       0.88271635       0.52585963 </v>
   <v>       0.11333521       0.77589155       0.47079110 </v>
   <v>       0.01586567       0.80080680       0.50713994 </v>
   <v>       0.04400465       0.82074184       0.58433340 </v>
   <v>       0.99041051       0.81902256       0.57005478 </v>
   <v>       0.90230621       0.00901825       0.52636180 </v>
   <v>       0.67007523       0.88390566       0.47251780 </v>
   <v>       0.79262352       0.98121966       0.50754739 </v>
   <v>       0.78423237       0.95319044       0.58487701 </v>
   <v>       0.83625708       0.00672169       0.57052658 </v>
   <v>       0.11417222       0.09511368       0.52633434 </v>
   <v>       0.22062765       0.32717961       0.47096313 </v>
   <v>       0.19579325       0.20509639       0.50759220 </v>
   <v>       0.17587689       0.21329077       0.58479292 </v>
   <v>       0.17773630       0.16145553       0.57057878 </v>
   <v>       0.31871924       0.80405529       0.39979953 </v>
   <v>       0.55531503       0.87498105       0.45618789 </v>
   <v>       0.41674244       0.79467624       0.39613573 </v>
   <v>       0.38173990       0.80647398       0.34157146 </v>
   <v>       0.43847827       0.85105032       0.36435859 </v>
   <v>       0.49277562       0.67849741       0.40123377 </v>
   <v>       0.32660149       0.44156600       0.45692551 </v>
   <v>       0.38539534       0.58086654       0.39694399 </v>
   <v>       0.43240063       0.61534954       0.34234655 </v>
   <v>       0.41947196       0.55843127       0.36552051 </v>
   <v>       0.19397780       0.50512704       0.39990718 </v>
   <v>       0.12177289       0.67020356       0.45490742 </v>
   <v>       0.20373355       0.61220793       0.39597454 </v>
   <v>       0.19113086       0.56540225       0.34092611 </v>
   <v>       0.14732479       0.57860536       0.36378833 </v>
   <v>       0.97890330       0.02058793       0.48670860 </v>
   <v>       0.97631145       0.94788838       0.48654430 </v>
   <v>       0.04900720       0.01806295       0.48664547 </v>
   <v>       0.17885885       0.76229788       0.50664763 </v>
   <v>       0.24985634       0.83519574       0.50972456 </v>
   <v>       0.25117700       0.76470125       0.50325945 </v>
   <v>       0.59072308       0.81819834       0.50809402 </v>
   <v>       0.59264484       0.74725873       0.51163625 </v>
   <v>       0.52081623       0.74569745       0.50469279 </v>
   <v>       0.23450852       0.40650008       0.50796263 </v>
   <v>       0.16161356       0.40451079       0.50964509 </v>
   <v>       0.23203890       0.47644136       0.50421187 </v>
   <v>       0.11768482       0.94281449       0.47938700 </v>
   <v>       0.83238295       0.87914160       0.48030260 </v>
   <v>       0.05374899       0.16449695       0.48007273 </v>
   <v>       0.39620035       0.86504101       0.55282815 </v>
   <v>       0.47617221       0.60042147       0.55359303 </v>
   <v>       0.13043343       0.52016742       0.55085279 </v>
   <v>       0.10580767       0.83311670       0.48671457 </v>
   <v>       0.73474743       0.89122015       0.48798250 </v>
   <v>       0.16330630       0.26245126       0.48683623 </v>
   <v>       0.49147848       0.86748654       0.48096209 </v>
   <v>       0.38310053       0.50536452       0.48176194 </v>
   <v>       0.12886894       0.61360600       0.47977751 </v>
   <v>       0.02533488       0.04091918       0.48691871 </v>
   <v>       0.95603497       0.97403022       0.48688162 </v>
   <v>       0.02285279       0.97159597       0.48671777 </v>
   <v>       0.20469881       0.74188191       0.50766542 </v>
   <v>       0.20309434       0.80902553       0.50847890 </v>
   <v>       0.27189689       0.81114152       0.50368356 </v>
   <v>       0.54443813       0.79221486       0.50911673 </v>
   <v>       0.61323570       0.79402646       0.51016991 </v>
   <v>       0.54656656       0.72505676       0.50530903 </v>
   <v>       0.25485444       0.45279849       0.50900089 </v>
   <v>       0.18779172       0.38395866       0.50915615 </v>
   <v>       0.18563538       0.45064141       0.50377629 </v>
   <v>       0.17669689       0.83354577       0.50934941 </v>
   <v>       0.12553787       0.87741578       0.50772630 </v>
   <v>       0.17155868       0.90237247       0.53240981 </v>
   <v>       0.19677037       0.87935100       0.53164206 </v>
   <v>       0.09413454       0.96513830       0.47350511 </v>
   <v>       0.19344901       0.95069223       0.56020102 </v>
   <v>       0.66417409       0.82042329       0.51092297 </v>
   <v>       0.75922749       0.87139146       0.50879860 </v>
   <v>       0.73807463       0.82533262       0.53343342 </v>
   <v>       0.68983082       0.80023841       0.53296543 </v>
   <v>       0.87824068       0.90269227       0.47414134 </v>
   <v>       0.76440699       0.80325153       0.56075290 </v>
   <v>       0.16318635       0.33301156       0.50992175 </v>
   <v>       0.11909781       0.23791577       0.50805768 </v>
   <v>       0.09423834       0.25905735       0.53278186 </v>
   <v>       0.11738827       0.30732790       0.53217672 </v>
   <v>       0.03156719       0.11859134       0.47412890 </v>
   <v>       0.04590132       0.23266303       0.56040171 </v>
   <v>       0.35333620       0.85877954       0.54921065 </v>
   <v>       0.45175530       0.84286541       0.51489570 </v>
   <v>       0.44218656       0.80434085       0.55579805 </v>
   <v>       0.47415238       0.78927346       0.55349618 </v>
   <v>       0.51499839       0.81344609       0.51630414 </v>
   <v>       0.39827382       0.77821429       0.59564562 </v>
   <v>       0.51280482       0.64335450       0.55023186 </v>
   <v>       0.39828915       0.54517393       0.51551397 </v>
   <v>       0.36934502       0.55497537       0.55600260 </v>
   <v>       0.32225782       0.52312465       0.55349907 </v>
   <v>       0.30551590       0.48217930       0.51650167 </v>
   <v>       0.38724740       0.59897971       0.59569404 </v>
   <v>       0.13696307       0.48370556       0.54751686 </v>
   <v>       0.15335092       0.59833950       0.51360975 </v>
   <v>       0.19189129       0.62717763       0.55455673 </v>
   <v>       0.20722486       0.67430181       0.55219435 </v>
   <v>       0.18326824       0.69116184       0.51492265 </v>
   <v>       0.21765285       0.60908634       0.59458053 </v>
   <v>       0.13047125       0.81175871       0.48795524 </v>
   <v>       0.09582229       0.89887922       0.50233006 </v>
   <v>       0.04819988       0.87475733       0.51964121 </v>
   <v>       0.02445607       0.89903626       0.51243671 </v>
   <v>       0.04709070       0.94490353       0.48996475 </v>
   <v>       0.02318188       0.82624678       0.54689858 </v>
   <v>       0.68871197       0.86665842       0.48948237 </v>
   <v>       0.81040458       0.90106901       0.50323240 </v>
   <v>       0.83400279       0.94875100       0.52037720 </v>
   <v>       0.88201804       0.97246794       0.51301873 </v>
   <v>       0.90513016       0.94978011       0.49043095 </v>
   <v>       0.81063914       0.97390999       0.54745416 </v>
   <v>       0.18480587       0.30850264       0.48823615 </v>
   <v>       0.09769359       0.18669684       0.50285227 </v>
   <v>       0.12191051       0.16329343       0.52016305 </v>
   <v>       0.09776660       0.11523317       0.51291736 </v>
   <v>       0.05193922       0.09188081       0.49039455 </v>
   <v>       0.17040998       0.18693499       0.54739331 </v>
   <v>       0.32301286       0.83393813       0.49709958 </v>
   <v>       0.41185585       0.85043331       0.50196802 </v>
   <v>       0.38707445       0.83274151       0.44151489 </v>
   <v>       0.34124501       0.82271033       0.44188670 </v>
   <v>       0.52316734       0.85401511       0.48375601 </v>
   <v>       0.40690389       0.82056138       0.38259119 </v>
   <v>       0.51829876       0.67390151       0.49843520 </v>
   <v>       0.44588996       0.58498116       0.50274899 </v>
   <v>       0.45304260       0.60995690       0.44246125 </v>
   <v>       0.48887136       0.65581748       0.44312721 </v>
   <v>       0.33786623       0.47379694       0.48434439 </v>
   <v>       0.42101484       0.59026364       0.38350901 </v>
   <v>       0.16276411       0.47881235       0.49632755 </v>
   <v>       0.14578652       0.55085146       0.50049752 </v>
   <v>       0.16441538       0.54427745       0.44060411 </v>
   <v>       0.17466158       0.50862005       0.44138615 </v>
   <v>       0.14260227       0.65886865       0.48247694 </v>
   <v>       0.17735001       0.57671839       0.38204084 </v>
  </varray>
 </structure>
</modeling>
