<?xml version="1.0" encoding="ISO-8859-1"?>
<modeling>
 <generator>
  <i name="program" type="string">vasp </i>
  <i name="version" type="string">5.4.4.18Apr17-6-g9f103f2a35  </i>
  <i name="subversion" type="string">(build Jun 07 2020 16:50:00) complex            parallel </i>
  <i name="platform" type="string">LinuxIFC </i>
  <i name="date" type="string">2023 02 16 </i>
  <i name="time" type="string">17:57:40 </i>
 </generator>
 <incar>
  <i type="string" name="SYSTEM">Simulation for cell shape cell volume r</i>
  <i type="int" name="ISTART">     1</i>
  <i type="string" name="PREC">high</i>
  <i type="string" name="ALGO">48</i>
  <i type="int" name="ICHARG">    11</i>
  <i type="int" name="NELM">   200</i>
  <i type="int" name="IBRION">    -1</i>
  <i name="EDIFF">      0.00001000</i>
  <i name="EDIFFG">     -0.01000000</i>
  <i type="int" name="NSW">     0</i>
  <i type="int" name="ISIF">     2</i>
  <i name="ENCUT">    500.00000000</i>
  <i name="POTIM">      0.30000000</i>
  <i type="string" name="LREAL">A</i>
  <i type="int" name="ISMEAR">     0</i>
  <i name="SIGMA">      0.01000000</i>
  <i type="int" name="NWRITE">     0</i>
  <i type="logical" name="LWAVE"> F  </i>
  <i type="logical" name="LCHARG"> F  </i>
  <v type="int" name="KPOINT_BSE">    -1     0     0     0</v>
  <i type="int" name="NELM">   200</i>
  <i type="string" name="GGA">PE</i>
 </incar>
 <structure name="primitive_cell" >
  <crystal>
   <varray name="basis" >
    <v>      14.35064416       0.04437424       0.00000000 </v>
    <v>       0.08332361      24.76742246       0.00000000 </v>
    <v>       0.00000000       0.00000000      20.00000000 </v>
   </varray>
   <i name="volume">   7108.49537904 </i>
   <varray name="rec_basis" >
    <v>       0.06968401      -0.00023443       0.00000000 </v>
    <v>      -0.00012485       0.04037604       0.00000000 </v>
    <v>       0.00000000       0.00000000       0.05000000 </v>
   </varray>
  </crystal>
  <varray name="positions" >
   <v>       0.15386669      -0.22621221       0.43772181 </v>
   <v>       0.23312281      -0.19885753       0.43678313 </v>
   <v>       0.15777139      -0.27876473       0.45405006 </v>
   <v>       0.23191053      -0.14701199       0.41757609 </v>
   <v>       0.24265274      -0.30382926       0.47025532 </v>
   <v>       0.32024793      -0.22400857       0.45372666 </v>
   <v>       0.06929659      -0.30966703       0.45329656 </v>
   <v>       0.09463968      -0.12595002       0.44349290 </v>
   <v>       0.11108903      -0.14495686       0.35814123 </v>
   <v>       0.14246733      -0.12375681       0.40071815 </v>
   <v>      -0.01085137      -0.28218676       0.44552311 </v>
   <v>       0.32252774      -0.27629163       0.47004078 </v>
   <v>       0.24542682      -0.34649123       0.48355797 </v>
   <v>       0.07661013      -0.36363498       0.46018409 </v>
   <v>       0.15777391      -0.08176691       0.38797250 </v>
   <v>       0.41103404      -0.19528752       0.45266880 </v>
   <v>      -0.12043664      -0.20436008       0.42117403 </v>
   <v>      -0.08778728      -0.31290365       0.44355965 </v>
   <v>       0.41136725      -0.14229386       0.46576316 </v>
   <v>      -0.00438629      -0.39018769       0.45622229 </v>
   <v>       0.48679944      -0.22556181       0.43888801 </v>
   <v>      -0.18351514      -0.22814496       0.42744245 </v>
   <v>      -0.08847408      -0.36693355       0.44727336 </v>
   <v>      -0.17861227      -0.28418767       0.43713903 </v>
   <v>       0.49527229      -0.11879256       0.45840930 </v>
   <v>      -0.43231188      -0.19880856       0.43931024 </v>
   <v>      -0.00355343      -0.45002716       0.46159948 </v>
   <v>      -0.26535761      -0.20226905       0.42674630 </v>
   <v>       0.41653379      -0.03352434       0.44777607 </v>
   <v>      -0.25634867      -0.31363216       0.44179131 </v>
   <v>       0.07639063      -0.47493609       0.47850094 </v>
   <v>      -0.42460025      -0.14479763       0.44579434 </v>
   <v>       0.49630638      -0.05879653       0.46300060 </v>
   <v>      -0.41591134      -0.31787246       0.44144618 </v>
   <v>      -0.47584835      -0.39087803       0.45097719 </v>
   <v>       0.25437264      -0.49794137       0.47474298 </v>
   <v>       0.21771619      -0.49337467      -0.44007344 </v>
   <v>      -0.21330027      -0.04841505      -0.46564150 </v>
   <v>      -0.34398670      -0.23044342       0.43358639 </v>
   <v>      -0.08462575      -0.47960270       0.44886857 </v>
   <v>       0.41455677       0.02040327       0.44746911 </v>
   <v>       0.34879150       0.04052613       0.43572616 </v>
   <v>      -0.33818325      -0.28831463       0.43870831 </v>
   <v>      -0.15017874      -0.45912930       0.43747700 </v>
   <v>      -0.40452392      -0.37554395       0.44904165 </v>
   <v>       0.23317164       0.47861570      -0.48125712 </v>
   <v>       0.07660333       0.47146960       0.48156038 </v>
   <v>      -0.42364897      -0.02760469       0.48090757 </v>
   <v>      -0.36650699      -0.38513378       0.49525197 </v>
   <v>      -0.36625718      -0.39281157       0.40645975 </v>
   <v>      -0.26764604      -0.01972267      -0.48078647 </v>
   <v>      -0.24563633       0.00357701       0.47530147 </v>
   <v>       0.15323931       0.44574642      -0.49663726 </v>
   <v>       0.12964309       0.10608327       0.41634142 </v>
   <v>      -0.08341636       0.46647162       0.44881279 </v>
   <v>      -0.34684944      -0.05295418      -0.49686264 </v>
   <v>       0.49511798       0.05041438       0.46025368 </v>
   <v>       0.28753697       0.44964826      -0.46698024 </v>
   <v>       0.02251863       0.11030884       0.46362988 </v>
   <v>      -0.00393639       0.44072615       0.46350466 </v>
   <v>       0.13413919       0.11792224      -0.49564524 </v>
   <v>       0.09369455       0.12539397       0.45861989 </v>
   <v>      -0.42460550       0.02596624       0.47735103 </v>
   <v>      -0.28433619       0.00841280      -0.43997354 </v>
   <v>       0.40931059       0.13328656       0.44552403 </v>
   <v>       0.49356440       0.11023714       0.45453870 </v>
   <v>      -0.00587203       0.38082870       0.45756794 </v>
   <v>       0.08200960       0.18260631       0.44704644 </v>
   <v>       0.24147121       0.18661614       0.44298722 </v>
   <v>       0.07402724       0.35470179       0.44460818 </v>
   <v>       0.15959335       0.21178986       0.43965105 </v>
   <v>      -0.42560934       0.13695833       0.45816325 </v>
   <v>       0.40985949       0.18729655       0.44098941 </v>
   <v>      -0.09007062       0.35748147       0.46402253 </v>
   <v>      -0.25725135       0.15383353       0.47988417 </v>
   <v>       0.31889219       0.21575556       0.43420836 </v>
   <v>      -0.34395486       0.41936932       0.38715317 </v>
   <v>      -0.40615247       0.37429181       0.44207235 </v>
   <v>       0.06551231       0.30099061       0.43582046 </v>
   <v>       0.23166366       0.29706067       0.41892287 </v>
   <v>      -0.43309332       0.19083201       0.45039203 </v>
   <v>      -0.25978394       0.19648429       0.46653248 </v>
   <v>       0.48665509       0.21815923       0.44230348 </v>
   <v>      -0.35938096       0.37718117       0.39876522 </v>
   <v>      -0.26979945       0.35329740       0.41380128 </v>
   <v>      -0.17975610       0.22386722       0.46610884 </v>
   <v>      -0.09103993       0.30482290       0.44893911 </v>
   <v>       0.15356089       0.26923077       0.42989226 </v>
   <v>      -0.39210413       0.35697271       0.35596433 </v>
   <v>       0.37635438       0.29444213       0.41026470 </v>
   <v>       0.31355360       0.27115271       0.41995518 </v>
   <v>      -0.01573074       0.27464359       0.43361878 </v>
   <v>      -0.34461296       0.22168704       0.45053649 </v>
   <v>      -0.26895408       0.30141512       0.43293931 </v>
   <v>      -0.18193077       0.27616582       0.44979169 </v>
   <v>      -0.34837232       0.27421347       0.43402220 </v>
  </varray>
 </structure>
 <varray name="primitive_index" >
  <v type="int" >        1 </v>
  <v type="int" >       75 </v>
  <v type="int" >       55 </v>
  <v type="int" >       51 </v>
  <v type="int" >       56 </v>
  <v type="int" >       74 </v>
  <v type="int" >       59 </v>
  <v type="int" >       35 </v>
  <v type="int" >       34 </v>
  <v type="int" >       76 </v>
  <v type="int" >        4 </v>
  <v type="int" >       15 </v>
  <v type="int" >       25 </v>
  <v type="int" >        3 </v>
  <v type="int" >       33 </v>
  <v type="int" >       64 </v>
  <v type="int" >       36 </v>
  <v type="int" >       62 </v>
  <v type="int" >        8 </v>
  <v type="int" >       61 </v>
  <v type="int" >        9 </v>
  <v type="int" >       77 </v>
  <v type="int" >        7 </v>
  <v type="int" >       67 </v>
  <v type="int" >       63 </v>
  <v type="int" >       65 </v>
  <v type="int" >       71 </v>
  <v type="int" >       13 </v>
  <v type="int" >       14 </v>
  <v type="int" >       11 </v>
  <v type="int" >       12 </v>
  <v type="int" >       10 </v>
  <v type="int" >       70 </v>
  <v type="int" >       49 </v>
  <v type="int" >       27 </v>
  <v type="int" >       43 </v>
  <v type="int" >       41 </v>
  <v type="int" >       31 </v>
  <v type="int" >       66 </v>
  <v type="int" >       78 </v>
  <v type="int" >       96 </v>
  <v type="int" >       48 </v>
  <v type="int" >       68 </v>
  <v type="int" >       37 </v>
  <v type="int" >       69 </v>
  <v type="int" >       91 </v>
  <v type="int" >       90 </v>
  <v type="int" >       72 </v>
  <v type="int" >       29 </v>
  <v type="int" >       28 </v>
  <v type="int" >       73 </v>
  <v type="int" >       32 </v>
  <v type="int" >       53 </v>
  <v type="int" >       39 </v>
  <v type="int" >       23 </v>
  <v type="int" >       50 </v>
  <v type="int" >       89 </v>
  <v type="int" >       42 </v>
  <v type="int" >       38 </v>
  <v type="int" >       88 </v>
  <v type="int" >       40 </v>
  <v type="int" >       87 </v>
  <v type="int" >       21 </v>
  <v type="int" >       30 </v>
  <v type="int" >       16 </v>
  <v type="int" >       79 </v>
  <v type="int" >       81 </v>
  <v type="int" >       52 </v>
  <v type="int" >       20 </v>
  <v type="int" >       19 </v>
  <v type="int" >       86 </v>
  <v type="int" >        5 </v>
  <v type="int" >       80 </v>
  <v type="int" >       17 </v>
  <v type="int" >       26 </v>
  <v type="int" >       85 </v>
  <v type="int" >       44 </v>
  <v type="int" >       46 </v>
  <v type="int" >       83 </v>
  <v type="int" >       22 </v>
  <v type="int" >       60 </v>
  <v type="int" >       58 </v>
  <v type="int" >        6 </v>
  <v type="int" >       94 </v>
  <v type="int" >       54 </v>
  <v type="int" >       24 </v>
  <v type="int" >       82 </v>
  <v type="int" >       84 </v>
  <v type="int" >       45 </v>
  <v type="int" >       47 </v>
  <v type="int" >       95 </v>
  <v type="int" >       18 </v>
  <v type="int" >       57 </v>
  <v type="int" >       93 </v>
  <v type="int" >       92 </v>
  <v type="int" >        2 </v>
 </varray>
 <kpoints>
  <generation param="listgenerated">
   <i name="divisions" type="int">      20 </i>
   <v>       0.00000000       0.00000000       0.00000000 </v>
   <v>       0.50000000       0.00000000       0.00000000 </v>
   <v>       0.50184968       0.49444921       0.00000000 </v>
   <v>       0.50000000       0.50000000       0.00000000 </v>
   <v>       0.49815032       0.50555079       0.00000000 </v>
   <v>       0.00000000       0.50000000       0.00000000 </v>
   <v>       0.00000000       0.00000000       0.00000000 </v>
  </generation>
  <varray name="kpointlist" >
   <v>       0.00000000       0.00000000       0.00000000 </v>
   <v>       0.02631579       0.00000000       0.00000000 </v>
   <v>       0.05263158       0.00000000       0.00000000 </v>
   <v>       0.07894737       0.00000000       0.00000000 </v>
   <v>       0.10526316       0.00000000       0.00000000 </v>
   <v>       0.13157895       0.00000000       0.00000000 </v>
   <v>       0.15789474       0.00000000       0.00000000 </v>
   <v>       0.18421053       0.00000000       0.00000000 </v>
   <v>       0.21052632       0.00000000       0.00000000 </v>
   <v>       0.23684211       0.00000000       0.00000000 </v>
   <v>       0.26315789       0.00000000       0.00000000 </v>
   <v>       0.28947368       0.00000000       0.00000000 </v>
   <v>       0.31578947       0.00000000       0.00000000 </v>
   <v>       0.34210526       0.00000000       0.00000000 </v>
   <v>       0.36842105       0.00000000       0.00000000 </v>
   <v>       0.39473684       0.00000000       0.00000000 </v>
   <v>       0.42105263       0.00000000       0.00000000 </v>
   <v>       0.44736842       0.00000000       0.00000000 </v>
   <v>       0.47368421       0.00000000       0.00000000 </v>
   <v>       0.50000000       0.00000000       0.00000000 </v>
   <v>       0.50000000       0.00000000       0.00000000 </v>
   <v>       0.50009735       0.02602364       0.00000000 </v>
   <v>       0.50019470       0.05204728       0.00000000 </v>
   <v>       0.50029205       0.07807093       0.00000000 </v>
   <v>       0.50038941       0.10409457       0.00000000 </v>
   <v>       0.50048676       0.13011821       0.00000000 </v>
   <v>       0.50058411       0.15614185       0.00000000 </v>
   <v>       0.50068146       0.18216550       0.00000000 </v>
   <v>       0.50077881       0.20818914       0.00000000 </v>
   <v>       0.50087616       0.23421278       0.00000000 </v>
   <v>       0.50097352       0.26023642       0.00000000 </v>
   <v>       0.50107087       0.28626007       0.00000000 </v>
   <v>       0.50116822       0.31228371       0.00000000 </v>
   <v>       0.50126557       0.33830735       0.00000000 </v>
   <v>       0.50136292       0.36433099       0.00000000 </v>
   <v>       0.50146027       0.39035464       0.00000000 </v>
   <v>       0.50155763       0.41637828       0.00000000 </v>
   <v>       0.50165498       0.44240192       0.00000000 </v>
   <v>       0.50175233       0.46842556       0.00000000 </v>
   <v>       0.50184968       0.49444921       0.00000000 </v>
   <v>       0.50184968       0.49444921       0.00000000 </v>
   <v>       0.50175233       0.49474135       0.00000000 </v>
   <v>       0.50165498       0.49503350       0.00000000 </v>
   <v>       0.50155763       0.49532565       0.00000000 </v>
   <v>       0.50146027       0.49561779       0.00000000 </v>
   <v>       0.50136292       0.49590994       0.00000000 </v>
   <v>       0.50126557       0.49620209       0.00000000 </v>
   <v>       0.50116822       0.49649424       0.00000000 </v>
   <v>       0.50107087       0.49678638       0.00000000 </v>
   <v>       0.50097352       0.49707853       0.00000000 </v>
   <v>       0.50087616       0.49737068       0.00000000 </v>
   <v>       0.50077881       0.49766282       0.00000000 </v>
   <v>       0.50068146       0.49795497       0.00000000 </v>
   <v>       0.50058411       0.49824712       0.00000000 </v>
   <v>       0.50048676       0.49853926       0.00000000 </v>
   <v>       0.50038941       0.49883141       0.00000000 </v>
   <v>       0.50029205       0.49912356       0.00000000 </v>
   <v>       0.50019470       0.49941571       0.00000000 </v>
   <v>       0.50009735       0.49970785       0.00000000 </v>
   <v>       0.50000000       0.50000000       0.00000000 </v>
   <v>       0.50000000       0.50000000       0.00000000 </v>
   <v>       0.49990265       0.50029215       0.00000000 </v>
   <v>       0.49980530       0.50058429       0.00000000 </v>
   <v>       0.49970795       0.50087644       0.00000000 </v>
   <v>       0.49961059       0.50116859       0.00000000 </v>
   <v>       0.49951324       0.50146074       0.00000000 </v>
   <v>       0.49941589       0.50175288       0.00000000 </v>
   <v>       0.49931854       0.50204503       0.00000000 </v>
   <v>       0.49922119       0.50233718       0.00000000 </v>
   <v>       0.49912384       0.50262932       0.00000000 </v>
   <v>       0.49902648       0.50292147       0.00000000 </v>
   <v>       0.49892913       0.50321362       0.00000000 </v>
   <v>       0.49883178       0.50350576       0.00000000 </v>
   <v>       0.49873443       0.50379791       0.00000000 </v>
   <v>       0.49863708       0.50409006       0.00000000 </v>
   <v>       0.49853973       0.50438221       0.00000000 </v>
   <v>       0.49844237       0.50467435       0.00000000 </v>
   <v>       0.49834502       0.50496650       0.00000000 </v>
   <v>       0.49824767       0.50525865       0.00000000 </v>
   <v>       0.49815032       0.50555079       0.00000000 </v>
   <v>       0.49815032       0.50555079       0.00000000 </v>
   <v>       0.47193188       0.50525865       0.00000000 </v>
   <v>       0.44571344       0.50496650       0.00000000 </v>
   <v>       0.41949501       0.50467435       0.00000000 </v>
   <v>       0.39327657       0.50438221       0.00000000 </v>
   <v>       0.36705813       0.50409006       0.00000000 </v>
   <v>       0.34083969       0.50379791       0.00000000 </v>
   <v>       0.31462125       0.50350576       0.00000000 </v>
   <v>       0.28840282       0.50321362       0.00000000 </v>
   <v>       0.26218438       0.50292147       0.00000000 </v>
   <v>       0.23596594       0.50262932       0.00000000 </v>
   <v>       0.20974750       0.50233718       0.00000000 </v>
   <v>       0.18352907       0.50204503       0.00000000 </v>
   <v>       0.15731063       0.50175288       0.00000000 </v>
   <v>       0.13109219       0.50146074       0.00000000 </v>
   <v>       0.10487375       0.50116859       0.00000000 </v>
   <v>       0.07865531       0.50087644       0.00000000 </v>
   <v>       0.05243688       0.50058429       0.00000000 </v>
   <v>       0.02621844       0.50029215       0.00000000 </v>
   <v>       0.00000000       0.50000000       0.00000000 </v>
   <v>       0.00000000       0.50000000       0.00000000 </v>
   <v>       0.00000000       0.47368421       0.00000000 </v>
   <v>       0.00000000       0.44736842       0.00000000 </v>
   <v>       0.00000000       0.42105263       0.00000000 </v>
   <v>       0.00000000       0.39473684       0.00000000 </v>
   <v>       0.00000000       0.36842105       0.00000000 </v>
   <v>       0.00000000       0.34210526       0.00000000 </v>
   <v>       0.00000000       0.31578947       0.00000000 </v>
   <v>       0.00000000       0.28947368       0.00000000 </v>
   <v>       0.00000000       0.26315789       0.00000000 </v>
   <v>       0.00000000       0.23684211       0.00000000 </v>
   <v>       0.00000000       0.21052632       0.00000000 </v>
   <v>       0.00000000       0.18421053       0.00000000 </v>
   <v>       0.00000000       0.15789474       0.00000000 </v>
   <v>       0.00000000       0.13157895       0.00000000 </v>
   <v>       0.00000000       0.10526316       0.00000000 </v>
   <v>       0.00000000       0.07894737       0.00000000 </v>
   <v>       0.00000000       0.05263158       0.00000000 </v>
   <v>       0.00000000       0.02631579       0.00000000 </v>
   <v>       0.00000000       0.00000000       0.00000000 </v>
  </varray>
  <varray name="weights" >
   <v>       0.00833333 </v>
   <v>       0.00833333 </v>
   <v>       0.00833333 </v>
   <v>       0.00833333 </v>
   <v>       0.00833333 </v>
   <v>       0.00833333 </v>
   <v>       0.00833333 </v>
   <v>       0.00833333 </v>
   <v>       0.00833333 </v>
   <v>       0.00833333 </v>
   <v>       0.00833333 </v>
   <v>       0.00833333 </v>
   <v>       0.00833333 </v>
   <v>       0.00833333 </v>
   <v>       0.00833333 </v>
   <v>       0.00833333 </v>
   <v>       0.00833333 </v>
   <v>       0.00833333 </v>
   <v>       0.00833333 </v>
   <v>       0.00833333 </v>
   <v>       0.00833333 </v>
   <v>       0.00833333 </v>
   <v>       0.00833333 </v>
   <v>       0.00833333 </v>
   <v>       0.00833333 </v>
   <v>       0.00833333 </v>
   <v>       0.00833333 </v>
   <v>       0.00833333 </v>
   <v>       0.00833333 </v>
   <v>       0.00833333 </v>
   <v>       0.00833333 </v>
   <v>       0.00833333 </v>
   <v>       0.00833333 </v>
   <v>       0.00833333 </v>
   <v>       0.00833333 </v>
   <v>       0.00833333 </v>
   <v>       0.00833333 </v>
   <v>       0.00833333 </v>
   <v>       0.00833333 </v>
   <v>       0.00833333 </v>
   <v>       0.00833333 </v>
   <v>       0.00833333 </v>
   <v>       0.00833333 </v>
   <v>       0.00833333 </v>
   <v>       0.00833333 </v>
   <v>       0.00833333 </v>
   <v>       0.00833333 </v>
   <v>       0.00833333 </v>
   <v>       0.00833333 </v>
   <v>       0.00833333 </v>
   <v>       0.00833333 </v>
   <v>       0.00833333 </v>
   <v>       0.00833333 </v>
   <v>       0.00833333 </v>
   <v>       0.00833333 </v>
   <v>       0.00833333 </v>
   <v>       0.00833333 </v>
   <v>       0.00833333 </v>
   <v>       0.00833333 </v>
   <v>       0.00833333 </v>
   <v>       0.00833333 </v>
   <v>       0.00833333 </v>
   <v>       0.00833333 </v>
   <v>       0.00833333 </v>
   <v>       0.00833333 </v>
   <v>       0.00833333 </v>
   <v>       0.00833333 </v>
   <v>       0.00833333 </v>
   <v>       0.00833333 </v>
   <v>       0.00833333 </v>
   <v>       0.00833333 </v>
   <v>       0.00833333 </v>
   <v>       0.00833333 </v>
   <v>       0.00833333 </v>
   <v>       0.00833333 </v>
   <v>       0.00833333 </v>
   <v>       0.00833333 </v>
   <v>       0.00833333 </v>
   <v>       0.00833333 </v>
   <v>       0.00833333 </v>
   <v>       0.00833333 </v>
   <v>       0.00833333 </v>
   <v>       0.00833333 </v>
   <v>       0.00833333 </v>
   <v>       0.00833333 </v>
   <v>       0.00833333 </v>
   <v>       0.00833333 </v>
   <v>       0.00833333 </v>
   <v>       0.00833333 </v>
   <v>       0.00833333 </v>
   <v>       0.00833333 </v>
   <v>       0.00833333 </v>
   <v>       0.00833333 </v>
   <v>       0.00833333 </v>
   <v>       0.00833333 </v>
   <v>       0.00833333 </v>
   <v>       0.00833333 </v>
   <v>       0.00833333 </v>
   <v>       0.00833333 </v>
   <v>       0.00833333 </v>
   <v>       0.00833333 </v>
   <v>       0.00833333 </v>
   <v>       0.00833333 </v>
   <v>       0.00833333 </v>
   <v>       0.00833333 </v>
   <v>       0.00833333 </v>
   <v>       0.00833333 </v>
   <v>       0.00833333 </v>
   <v>       0.00833333 </v>
   <v>       0.00833333 </v>
   <v>       0.00833333 </v>
   <v>       0.00833333 </v>
   <v>       0.00833333 </v>
   <v>       0.00833333 </v>
   <v>       0.00833333 </v>
   <v>       0.00833333 </v>
   <v>       0.00833333 </v>
   <v>       0.00833333 </v>
   <v>       0.00833333 </v>
   <v>       0.00833333 </v>
  </varray>
 </kpoints>
 <parameters>
  <separator name="general" >
   <i type="string" name="SYSTEM">Simulation for cell shape cell volume r</i>
   <i type="logical" name="LCOMPAT"> F  </i>
  </separator>
  <separator name="electronic" >
   <i type="string" name="PREC">high</i>
   <i name="ENMAX">    500.00000000</i>
   <i name="ENAUG">    644.87300000</i>
   <i name="EDIFF">      0.00001000</i>
   <i type="int" name="IALGO">    38</i>
   <i type="int" name="IWAVPR">    10</i>
   <i type="int" name="NBANDS">   224</i>
   <i name="NELECT">    348.00000000</i>
   <i type="int" name="TURBO">     0</i>
   <i type="int" name="IRESTART">     0</i>
   <i type="int" name="NREBOOT">     0</i>
   <i type="int" name="NMIN">     0</i>
   <i name="EREF">      0.00000000</i>
   <separator name="electronic smearing" >
    <i type="int" name="ISMEAR">     0</i>
    <i name="SIGMA">      0.01000000</i>
    <i name="KSPACING">      0.50000000</i>
    <i type="logical" name="KGAMMA"> T  </i>
   </separator>
   <separator name="electronic projectors" >
    <i type="logical" name="LREAL"> T  </i>
    <v name="ROPT">     -0.00040000     -0.00040000     -0.00040000     -0.00040000</v>
    <i type="int" name="LMAXPAW">  -100</i>
    <i type="int" name="LMAXMIX">     2</i>
    <i type="logical" name="NLSPLINE"> F  </i>
   </separator>
   <separator name="electronic startup" >
    <i type="int" name="ISTART">     1</i>
    <i type="int" name="ICHARG">    11</i>
    <i type="int" name="INIWAV">     1</i>
   </separator>
   <separator name="electronic spin" >
    <i type="int" name="ISPIN">     1</i>
    <i type="logical" name="LNONCOLLINEAR"> F  </i>
    <v name="MAGMOM">      1.00000000      1.00000000      1.00000000      1.00000000      1.00000000      1.00000000      1.00000000      1.00000000      1.00000000      1.00000000      1.00000000      1.00000000      1.00000000      1.00000000      1.00000000      1.00000000      1.00000000      1.00000000      1.00000000      1.00000000
      1.00000000      1.00000000      1.00000000      1.00000000      1.00000000      1.00000000      1.00000000      1.00000000      1.00000000      1.00000000      1.00000000      1.00000000      1.00000000      1.00000000      1.00000000      1.00000000      1.00000000      1.00000000      1.00000000      1.00000000
      1.00000000      1.00000000      1.00000000      1.00000000      1.00000000      1.00000000      1.00000000      1.00000000      1.00000000      1.00000000      1.00000000      1.00000000      1.00000000      1.00000000      1.00000000      1.00000000      1.00000000      1.00000000      1.00000000      1.00000000
      1.00000000      1.00000000      1.00000000      1.00000000      1.00000000      1.00000000      1.00000000      1.00000000      1.00000000      1.00000000      1.00000000      1.00000000      1.00000000      1.00000000      1.00000000      1.00000000      1.00000000      1.00000000      1.00000000      1.00000000
      1.00000000      1.00000000      1.00000000      1.00000000      1.00000000      1.00000000      1.00000000      1.00000000      1.00000000      1.00000000      1.00000000      1.00000000      1.00000000      1.00000000      1.00000000      1.00000000</v>
    <i name="NUPDOWN">     -1.00000000</i>
    <i type="logical" name="LSORBIT"> F  </i>
    <v name="SAXIS">      0.00000000      0.00000000      1.00000000</v>
    <i type="logical" name="LSPIRAL"> F  </i>
    <v name="QSPIRAL">      0.00000000      0.00000000      0.00000000</v>
    <i type="logical" name="LZEROZ"> F  </i>
   </separator>
   <separator name="electronic exchange-correlation" >
    <i type="logical" name="LASPH"> F  </i>
    <i type="logical" name="LMETAGGA"> F  </i>
   </separator>
   <separator name="electronic convergence" >
    <i type="int" name="NELM">   200</i>
    <i type="int" name="NELMDL">     0</i>
    <i type="int" name="NELMIN">     2</i>
    <i name="ENINI">    500.00000000</i>
    <separator name="electronic convergence detail" >
     <i type="logical" name="LDIAG"> T  </i>
     <i type="logical" name="LSUBROT"> F  </i>
     <i name="WEIMIN">      0.00000000</i>
     <i name="EBREAK">      0.00000001</i>
     <i name="DEPER">      0.30000000</i>
     <i type="int" name="NRMM">     4</i>
     <i name="TIME">      0.40000000</i>
    </separator>
   </separator>
   <separator name="electronic mixer" >
    <i name="AMIX">      0.40000000</i>
    <i name="BMIX">      1.00000000</i>
    <i name="AMIN">      0.10000000</i>
    <i name="AMIX_MAG">      1.60000000</i>
    <i name="BMIX_MAG">      1.00000000</i>
    <separator name="electronic mixer details" >
     <i type="int" name="IMIX">     4</i>
     <i type="logical" name="MIXFIRST"> F  </i>
     <i type="int" name="MAXMIX">   -45</i>
     <i name="WC">    100.00000000</i>
     <i type="int" name="INIMIX">     1</i>
     <i type="int" name="MIXPRE">     1</i>
     <i type="int" name="MREMOVE">     5</i>
    </separator>
   </separator>
   <separator name="electronic dipolcorrection" >
    <i type="logical" name="LDIPOL"> F  </i>
    <i type="logical" name="LMONO"> F  </i>
    <i type="int" name="IDIPOL">     0</i>
    <i name="EPSILON">      1.00000000</i>
    <v name="DIPOL">   -100.00000000   -100.00000000   -100.00000000</v>
    <i name="EFIELD">      0.00000000</i>
   </separator>
  </separator>
  <separator name="grids" >
   <i type="int" name="NGX">   108</i>
   <i type="int" name="NGY">   192</i>
   <i type="int" name="NGZ">   150</i>
   <i type="int" name="NGXF">   160</i>
   <i type="int" name="NGYF">   280</i>
   <i type="int" name="NGZF">   224</i>
   <i type="logical" name="ADDGRID"> F  </i>
  </separator>
  <separator name="ionic" >
   <i type="int" name="NSW">     0</i>
   <i type="int" name="IBRION">    -1</i>
   <i type="int" name="MDALGO">     0</i>
   <i type="int" name="ISIF">     2</i>
   <i name="PSTRESS">      0.00000000</i>
   <i name="EDIFFG">     -0.01000000</i>
   <i type="int" name="NFREE">     0</i>
   <i name="POTIM">      0.30000000</i>
   <i name="SMASS">     -3.00000000</i>
   <i name="SCALEE">      1.00000000</i>
  </separator>
  <separator name="ionic md" >
   <i name="TEBEG">      0.00010000</i>
   <i name="TEEND">      0.00010000</i>
   <i type="int" name="NBLOCK">     1</i>
   <i type="int" name="KBLOCK">     1</i>
   <i type="int" name="NPACO">   256</i>
   <i name="APACO">     16.00000000</i>
  </separator>
  <separator name="symmetry" >
   <i type="int" name="ISYM">     2</i>
   <i name="SYMPREC">      0.00001000</i>
  </separator>
  <separator name="dos" >
   <i type="int" name="LORBIT">     0</i>
   <v name="RWIGS">     -1.00000000     -1.00000000     -1.00000000     -1.00000000</v>
   <i type="int" name="NEDOS">   301</i>
   <i name="EMIN">     10.00000000</i>
   <i name="EMAX">    -10.00000000</i>
   <i name="EFERMI">      0.00000000</i>
  </separator>
  <separator name="writing" >
   <i type="int" name="NWRITE">     0</i>
   <i type="logical" name="LWAVE"> F  </i>
   <i type="logical" name="LDOWNSAMPLE"> F  </i>
   <i type="logical" name="LCHARG"> F  </i>
   <i type="logical" name="LPARD"> F  </i>
   <i type="logical" name="LVTOT"> F  </i>
   <i type="logical" name="LVHAR"> F  </i>
   <i type="logical" name="LELF"> F  </i>
   <i type="logical" name="LOPTICS"> F  </i>
   <v name="STM">      0.00000000      0.00000000      0.00000000      0.00000000      0.00000000      0.00000000      0.00000000</v>
  </separator>
  <separator name="performance" >
   <i type="int" name="NPAR">    16</i>
   <i type="int" name="NSIM">     4</i>
   <i type="int" name="NBLK">    -1</i>
   <i type="logical" name="LPLANE"> T  </i>
   <i type="logical" name="LSCALAPACK"> T  </i>
   <i type="logical" name="LSCAAWARE"> F  </i>
   <i type="logical" name="LSCALU"> F  </i>
   <i type="logical" name="LASYNC"> F  </i>
   <i type="logical" name="LORBITALREAL"> F  </i>
  </separator>
  <separator name="miscellaneous" >
   <i type="int" name="IDIOT">     3</i>
   <i type="int" name="ISPECIAL">     0</i>
   <i type="logical" name="LMUSIC"> F  </i>
   <v name="POMASS">     14.00100000      1.00000000     16.00000000     12.01100000</v>
   <v name="DARWINR">      0.00000000      0.00000000      0.00000000      0.00000000</v>
   <v name="DARWINV">      1.00000000      1.00000000      1.00000000      1.00000000</v>
   <i type="logical" name="LCORR"> T  </i>
  </separator>
  <i type="logical" name="GGA_COMPAT"> T  </i>
  <i type="logical" name="LBERRY"> F  </i>
  <i type="int" name="ICORELEVEL">     0</i>
  <i type="logical" name="LDAU"> F  </i>
  <i type="int" name="I_CONSTRAINED_M">     0</i>
  <separator name="electronic exchange-correlation" >
   <i type="string" name="GGA">PE</i>
   <i type="int" name="VOSKOWN">     0</i>
   <i type="logical" name="LHFCALC"> F  </i>
   <i type="string" name="PRECFOCK"></i>
   <i type="logical" name="LSYMGRAD"> F  </i>
   <i type="logical" name="LHFONE"> F  </i>
   <i type="logical" name="LRHFCALC"> F  </i>
   <i type="logical" name="LTHOMAS"> F  </i>
   <i type="logical" name="LMODELHF"> F  </i>
   <i name="ENCUT4O">     -1.00000000</i>
   <i type="int" name="EXXOEP">     0</i>
   <i type="int" name="FOURORBIT">     0</i>
   <i name="AEXX">      0.00000000</i>
   <i name="HFALPHA">      0.00000000</i>
   <i name="MCALPHA">      0.00000000</i>
   <i name="ALDAX">      1.00000000</i>
   <i name="AGGAX">      1.00000000</i>
   <i name="ALDAC">      1.00000000</i>
   <i name="AGGAC">      1.00000000</i>
   <i type="int" name="NKREDX">     1</i>
   <i type="int" name="NKREDY">     1</i>
   <i type="int" name="NKREDZ">     1</i>
   <i type="logical" name="SHIFTRED"> F  </i>
   <i type="logical" name="ODDONLY"> F  </i>
   <i type="logical" name="EVENONLY"> F  </i>
   <i type="int" name="LMAXFOCK">     0</i>
   <i type="int" name="NMAXFOCKAE">     0</i>
   <i type="logical" name="LFOCKAEDFT"> F  </i>
   <i name="HFSCREEN">      0.00000000</i>
   <i name="HFSCREENC">      0.00000000</i>
   <i type="int" name="NBANDSGWLOW">     0</i>
  </separator>
  <separator name="vdW DFT" >
   <i type="logical" name="LUSE_VDW"> F  </i>
   <i name="Zab_VDW">     -0.84910000</i>
   <i name="PARAM1">      0.12340000</i>
   <i name="PARAM2">      1.00000000</i>
   <i name="PARAM3">      0.00000000</i>
  </separator>
  <separator name="model GW" >
   <i type="int" name="MODEL_GW">     0</i>
   <i name="MODEL_EPS0">     44.42809612</i>
   <i name="MODEL_ALPHA">      1.00000000</i>
  </separator>
  <separator name="linear response parameters" >
   <i type="logical" name="LEPSILON"> F  </i>
   <i type="logical" name="LRPA"> F  </i>
   <i type="logical" name="LNABLA"> F  </i>
   <i type="logical" name="LVEL"> F  </i>
   <i type="int" name="KINTER">     0</i>
   <i name="CSHIFT">      0.10000000</i>
   <i name="OMEGAMAX">     -1.00000000</i>
   <i name="DEG_THRESHOLD">      0.00200000</i>
   <i name="RTIME">     -0.10000000</i>
   <i name="WPLASMAI">      0.00000000</i>
   <v name="DFIELD">      0.00000000      0.00000000      0.00000000</v>
   <v name="WPLASMA">      0.00000000      0.00000000      0.00000000      0.00000000      0.00000000      0.00000000      0.00000000      0.00000000      0.00000000</v>
  </separator>
  <separator name="orbital magnetization" >
   <i type="logical" name="NUCIND"> F  </i>
   <v name="MAGPOS">      0.00000000      0.00000000      0.00000000</v>
   <i type="logical" name="LNICSALL"> T  </i>
   <i type="logical" name="ORBITALMAG"> F  </i>
   <i type="logical" name="LMAGBLOCH"> F  </i>
   <i type="logical" name="LCHIMAG"> F  </i>
   <i type="logical" name="LGAUGE"> T  </i>
   <i type="int" name="MAGATOM">     0</i>
   <v name="MAGDIPOL">      0.00000000      0.00000000      0.00000000</v>
   <v name="AVECCONST">      0.00000000      0.00000000      0.00000000</v>
  </separator>
  <separator name="response functions" >
   <i type="logical" name="LADDER"> F  </i>
   <i type="logical" name="LRPAFORCE"> F  </i>
   <i type="logical" name="LFXC"> F  </i>
   <i type="logical" name="LHARTREE"> T  </i>
   <i type="int" name="IBSE">     0</i>
   <v type="int" name="KPOINT">    -1     0     0     0</v>
   <i type="logical" name="LTCTE"> F  </i>
   <i type="logical" name="LTETE"> F  </i>
   <i type="logical" name="LTRIPLET"> F  </i>
   <i type="logical" name="LFXCEPS"> F  </i>
   <i type="logical" name="LFXHEG"> F  </i>
   <i type="int" name="NATURALO">     2</i>
   <i type="logical" name="L2ORDER"> F  </i>
   <i type="logical" name="LMP2LT"> F  </i>
   <i type="logical" name="LUSEW"> F  </i>
   <i name="ENCUTGW">     -2.00000000</i>
   <i name="ENCUTGWSOFT">     -2.00000000</i>
   <i name="ENCUTLF">     -1.00000000</i>
   <i type="int" name="LMAXMP2">    -1</i>
   <i name="SCISSOR">      0.00000000</i>
   <i type="int" name="NOMEGA">     0</i>
   <i type="int" name="NOMEGAR">     0</i>
   <i type="int" name="NBANDSGW">    -1</i>
   <i type="int" name="NBANDSO">    -1</i>
   <i type="int" name="NBANDSV">    -1</i>
   <i type="int" name="NELM">   200</i>
   <i type="int" name="NELMHF">     1</i>
   <i type="int" name="DIM">     3</i>
   <i type="int" name="ANTIRES">     0</i>
   <i name="OMEGAMAX">    -30.00000000</i>
   <i name="OMEGAMIN">    -30.00000000</i>
   <i name="OMEGATL">   -200.00000000</i>
   <i type="int" name="OMEGAGRID">   140</i>
   <i name="CSHIFT">     -0.10000000</i>
   <i type="logical" name="SELFENERGY"> F  </i>
   <i type="logical" name="LSPECTRAL"> F  </i>
   <i type="logical" name="LSPECTRALGW"> F  </i>
   <i type="logical" name="LSINGLES"> F  </i>
   <i type="logical" name="LFERMIGW"> F  </i>
   <i type="logical" name="ODDONLYGW"> F  </i>
   <i type="logical" name="EVENONLYGW"> F  </i>
   <i type="int" name="NKREDLFX">     1</i>
   <i type="int" name="NKREDLFY">     1</i>
   <i type="int" name="NKREDLFZ">     1</i>
   <i type="int" name="MAXMEM">  2800</i>
   <i type="int" name="TELESCOPE">     0</i>
   <i type="int" name="TAUPAR">     1</i>
   <i type="int" name="OMEGAPAR">    -1</i>
   <i name="LAMBDA">      1.00000000</i>
  </separator>
  <separator name="External order field" >
   <i name="OFIELD_KAPPA">      0.00000000</i>
   <v name="OFIELD_K">      0.00000000      0.00000000      0.00000000</v>
   <i name="OFIELD_Q6_NEAR">      0.00000000</i>
   <i name="OFIELD_Q6_FAR">      0.00000000</i>
   <i name="OFIELD_A">      0.00000000</i>
  </separator>
  <separator name="solvation model" >
   <i type="logical" name="LSOL"> F  </i>
  </separator>
 </parameters>
 <atominfo>
  <atoms>      96 </atoms>
  <types>       4 </types>
  <array name="atoms" >
   <dimension dim="1">ion</dimension>
   <field type="string">element</field>
   <field type="int">atomtype</field>
   <set>
    <rc><c>N </c><c>   1</c></rc>
    <rc><c>N </c><c>   1</c></rc>
    <rc><c>N </c><c>   1</c></rc>
    <rc><c>N </c><c>   1</c></rc>
    <rc><c>N </c><c>   1</c></rc>
    <rc><c>N </c><c>   1</c></rc>
    <rc><c>N </c><c>   1</c></rc>
    <rc><c>N </c><c>   1</c></rc>
    <rc><c>N </c><c>   1</c></rc>
    <rc><c>N </c><c>   1</c></rc>
    <rc><c>N </c><c>   1</c></rc>
    <rc><c>N </c><c>   1</c></rc>
    <rc><c>N </c><c>   1</c></rc>
    <rc><c>N </c><c>   1</c></rc>
    <rc><c>N </c><c>   1</c></rc>
    <rc><c>N </c><c>   1</c></rc>
    <rc><c>N </c><c>   1</c></rc>
    <rc><c>N </c><c>   1</c></rc>
    <rc><c>N </c><c>   1</c></rc>
    <rc><c>N </c><c>   1</c></rc>
    <rc><c>N </c><c>   1</c></rc>
    <rc><c>N </c><c>   1</c></rc>
    <rc><c>N </c><c>   1</c></rc>
    <rc><c>N </c><c>   1</c></rc>
    <rc><c>H </c><c>   2</c></rc>
    <rc><c>H </c><c>   2</c></rc>
    <rc><c>H </c><c>   2</c></rc>
    <rc><c>H </c><c>   2</c></rc>
    <rc><c>H </c><c>   2</c></rc>
    <rc><c>H </c><c>   2</c></rc>
    <rc><c>H </c><c>   2</c></rc>
    <rc><c>H </c><c>   2</c></rc>
    <rc><c>H </c><c>   2</c></rc>
    <rc><c>H </c><c>   2</c></rc>
    <rc><c>H </c><c>   2</c></rc>
    <rc><c>H </c><c>   2</c></rc>
    <rc><c>H </c><c>   2</c></rc>
    <rc><c>H </c><c>   2</c></rc>
    <rc><c>H </c><c>   2</c></rc>
    <rc><c>H </c><c>   2</c></rc>
    <rc><c>H </c><c>   2</c></rc>
    <rc><c>H </c><c>   2</c></rc>
    <rc><c>H </c><c>   2</c></rc>
    <rc><c>H </c><c>   2</c></rc>
    <rc><c>H </c><c>   2</c></rc>
    <rc><c>H </c><c>   2</c></rc>
    <rc><c>H </c><c>   2</c></rc>
    <rc><c>H </c><c>   2</c></rc>
    <rc><c>O </c><c>   3</c></rc>
    <rc><c>O </c><c>   3</c></rc>
    <rc><c>O </c><c>   3</c></rc>
    <rc><c>O </c><c>   3</c></rc>
    <rc><c>O </c><c>   3</c></rc>
    <rc><c>O </c><c>   3</c></rc>
    <rc><c>C </c><c>   4</c></rc>
    <rc><c>C </c><c>   4</c></rc>
    <rc><c>C </c><c>   4</c></rc>
    <rc><c>C </c><c>   4</c></rc>
    <rc><c>C </c><c>   4</c></rc>
    <rc><c>C </c><c>   4</c></rc>
    <rc><c>C </c><c>   4</c></rc>
    <rc><c>C </c><c>   4</c></rc>
    <rc><c>C </c><c>   4</c></rc>
    <rc><c>C </c><c>   4</c></rc>
    <rc><c>C </c><c>   4</c></rc>
    <rc><c>C </c><c>   4</c></rc>
    <rc><c>C </c><c>   4</c></rc>
    <rc><c>C </c><c>   4</c></rc>
    <rc><c>C </c><c>   4</c></rc>
    <rc><c>C </c><c>   4</c></rc>
    <rc><c>C </c><c>   4</c></rc>
    <rc><c>C </c><c>   4</c></rc>
    <rc><c>C </c><c>   4</c></rc>
    <rc><c>C </c><c>   4</c></rc>
    <rc><c>C </c><c>   4</c></rc>
    <rc><c>C </c><c>   4</c></rc>
    <rc><c>C </c><c>   4</c></rc>
    <rc><c>C </c><c>   4</c></rc>
    <rc><c>C </c><c>   4</c></rc>
    <rc><c>C </c><c>   4</c></rc>
    <rc><c>C </c><c>   4</c></rc>
    <rc><c>C </c><c>   4</c></rc>
    <rc><c>C </c><c>   4</c></rc>
    <rc><c>C </c><c>   4</c></rc>
    <rc><c>C </c><c>   4</c></rc>
    <rc><c>C </c><c>   4</c></rc>
    <rc><c>C </c><c>   4</c></rc>
    <rc><c>C </c><c>   4</c></rc>
    <rc><c>C </c><c>   4</c></rc>
    <rc><c>C </c><c>   4</c></rc>
    <rc><c>C </c><c>   4</c></rc>
    <rc><c>C </c><c>   4</c></rc>
    <rc><c>C </c><c>   4</c></rc>
    <rc><c>C </c><c>   4</c></rc>
    <rc><c>C </c><c>   4</c></rc>
    <rc><c>C </c><c>   4</c></rc>
   </set>
  </array>
  <array name="atomtypes" >
   <dimension dim="1">type</dimension>
   <field type="int">atomspertype</field>
   <field type="string">element</field>
   <field>mass</field>
   <field>valence</field>
   <field type="string">pseudopotential</field>
   <set>
    <rc><c>  24</c><c>N </c><c>     14.00100000</c><c>      5.00000000</c><c>  PAW_PBE N 08Apr2002                   </c></rc>
    <rc><c>  24</c><c>H </c><c>      1.00000000</c><c>      1.00000000</c><c>  PAW_PBE H 15Jun2001                   </c></rc>
    <rc><c>   6</c><c>O </c><c>     16.00000000</c><c>      6.00000000</c><c>  PAW_PBE O 08Apr2002                   </c></rc>
    <rc><c>  42</c><c>C </c><c>     12.01100000</c><c>      4.00000000</c><c>  PAW_PBE C 08Apr2002                   </c></rc>
   </set>
  </array>
 </atominfo>
 <structure name="initialpos" >
  <crystal>
   <varray name="basis" >
    <v>      14.35064416       0.04437424       0.00000000 </v>
    <v>       0.08332361      24.76742246       0.00000000 </v>
    <v>       0.00000000       0.00000000      20.00000000 </v>
   </varray>
   <i name="volume">   7108.49537904 </i>
   <varray name="rec_basis" >
    <v>       0.06968401      -0.00023443       0.00000000 </v>
    <v>      -0.00012485       0.04037604       0.00000000 </v>
    <v>       0.00000000       0.00000000       0.05000000 </v>
   </varray>
  </crystal>
  <varray name="positions" >
   <v>       0.15386669       0.77378779       0.43772181 </v>
   <v>       0.65162768       0.27421347       0.43402220 </v>
   <v>       0.07661013       0.63636502       0.46018409 </v>
   <v>       0.98914863       0.71781324       0.44552311 </v>
   <v>       0.57439066       0.13695833       0.45816325 </v>
   <v>       0.48665509       0.21815923       0.44230348 </v>
   <v>       0.91152592       0.63306645       0.44727336 </v>
   <v>       0.41136725       0.85770614       0.46576316 </v>
   <v>       0.48679944       0.77443819       0.43888801 </v>
   <v>       0.57539975       0.85520237       0.44579434 </v>
   <v>       0.74365133       0.68636784       0.44179131 </v>
   <v>       0.07639063       0.52506391       0.47850094 </v>
   <v>       0.73464239       0.79773095       0.42674630 </v>
   <v>       0.41653379       0.96647566       0.44777607 </v>
   <v>       0.32252774       0.72370837       0.47004078 </v>
   <v>       0.40931059       0.13328656       0.44552403 </v>
   <v>       0.90992938       0.35748147       0.46402253 </v>
   <v>       0.98426926       0.27464359       0.43361878 </v>
   <v>       0.07402724       0.35470179       0.44460818 </v>
   <v>       0.24147121       0.18661614       0.44298722 </v>
   <v>       0.57539450       0.02596624       0.47735103 </v>
   <v>       0.23166366       0.29706067       0.41892287 </v>
   <v>       0.91658364       0.46647162       0.44881279 </v>
   <v>       0.82024390       0.22386722       0.46610884 </v>
   <v>       0.24542682       0.65350877       0.48355797 </v>
   <v>       0.74274865       0.15383353       0.47988417 </v>
   <v>       0.52415165       0.60912197       0.45097719 </v>
   <v>       0.63374282       0.60718843       0.40645975 </v>
   <v>       0.63349301       0.61486622       0.49525197 </v>
   <v>       0.71566381       0.00841280       0.56002646 </v>
   <v>       0.78669973       0.95158495       0.53435850 </v>
   <v>       0.75436367       0.00357701       0.47530147 </v>
   <v>       0.15777391       0.91823309       0.38797250 </v>
   <v>       0.11108903       0.85504314       0.35814123 </v>
   <v>       0.09463968       0.87404998       0.44349290 </v>
   <v>       0.87956336       0.79563992       0.42117403 </v>
   <v>       0.84982126       0.54087070       0.43747700 </v>
   <v>       0.02251863       0.11030884       0.46362988 </v>
   <v>       0.12964309       0.10608327       0.41634142 </v>
   <v>       0.13413919       0.11792224       0.50435476 </v>
   <v>       0.21771619       0.50662533       0.55992656 </v>
   <v>       0.28753697       0.44964826       0.53301976 </v>
   <v>       0.25437264       0.50205863       0.47474298 </v>
   <v>       0.65604514       0.41936932       0.38715317 </v>
   <v>       0.60789587       0.35697271       0.35596433 </v>
   <v>       0.59384753       0.37429181       0.44207235 </v>
   <v>       0.37635438       0.29444213       0.41026470 </v>
   <v>       0.34879150       0.04052613       0.43572616 </v>
   <v>       0.58408866       0.68212754       0.44144618 </v>
   <v>       0.65315056       0.94704582       0.50313736 </v>
   <v>       0.23191053       0.85298801       0.41757609 </v>
   <v>       0.08200960       0.18260631       0.44704644 </v>
   <v>       0.15323931       0.44574642       0.50336274 </v>
   <v>       0.73020055       0.35329740       0.41380128 </v>
   <v>       0.15777139       0.72123527       0.45405006 </v>
   <v>       0.24265274       0.69617074       0.47025532 </v>
   <v>       0.65538704       0.22168704       0.45053649 </v>
   <v>       0.74021606       0.19648429       0.46653248 </v>
   <v>       0.06929659       0.69033297       0.45329656 </v>
   <v>       0.56690668       0.19083201       0.45039203 </v>
   <v>       0.99561371       0.60981231       0.45622229 </v>
   <v>       0.91221272       0.68709635       0.44355965 </v>
   <v>       0.49527229       0.88120744       0.45840930 </v>
   <v>       0.41103404       0.80471248       0.45266880 </v>
   <v>       0.56768812       0.80119144       0.43931024 </v>
   <v>       0.65601330       0.76955658       0.43358639 </v>
   <v>       0.82138773       0.71581233       0.43713903 </v>
   <v>       0.66181675       0.71168537       0.43870831 </v>
   <v>       0.59547608       0.62445605       0.44904165 </v>
   <v>       0.49630638       0.94120347       0.46300060 </v>
   <v>       0.99644657       0.54997284       0.46159948 </v>
   <v>       0.57635103       0.97239531       0.48090757 </v>
   <v>       0.73235396       0.98027733       0.51921353 </v>
   <v>       0.32024793       0.77599143       0.45372666 </v>
   <v>       0.23312281       0.80114247       0.43678313 </v>
   <v>       0.14246733       0.87624319       0.40071815 </v>
   <v>       0.81648486       0.77185504       0.42744245 </v>
   <v>       0.91537425       0.52039730       0.44886857 </v>
   <v>       0.49356440       0.11023714       0.45453870 </v>
   <v>       0.40985949       0.18729655       0.44098941 </v>
   <v>       0.99412797       0.38082870       0.45756794 </v>
   <v>       0.90896007       0.30482290       0.44893911 </v>
   <v>       0.06551231       0.30099061       0.43582046 </v>
   <v>       0.15356089       0.26923077       0.42989226 </v>
   <v>       0.31889219       0.21575556       0.43420836 </v>
   <v>       0.15959335       0.21178986       0.43965105 </v>
   <v>       0.09369455       0.12539397       0.45861989 </v>
   <v>       0.99606361       0.44072615       0.46350466 </v>
   <v>       0.49511798       0.05041438       0.46025368 </v>
   <v>       0.07660333       0.47146960       0.48156038 </v>
   <v>       0.23317164       0.47861570       0.51874288 </v>
   <v>       0.81806923       0.27616582       0.44979169 </v>
   <v>       0.73104592       0.30141512       0.43293931 </v>
   <v>       0.64061904       0.37718117       0.39876522 </v>
   <v>       0.31355360       0.27115271       0.41995518 </v>
   <v>       0.41455677       0.02040327       0.44746911 </v>
  </varray>
 </structure>
 <calculation>
  <scstep>
   <time name="dav">  223.87  225.68</time>
   <time name="total">  224.00  225.83</time>
   <energy>
    <i name="alphaZ">     77.20987039 </i>
    <i name="ewald">  40683.52405800 </i>
    <i name="hartreedc"> -53586.70318840 </i>
    <i name="XCdc">   1302.11936158 </i>
    <i name="pawpsdc">  33041.61685604 </i>
    <i name="pawaedc"> -33116.04991816 </i>
    <i name="eentropy">     -0.00000000 </i>
    <i name="bandstr">  -4520.83892492 </i>
    <i name="atom">  15422.88302194 </i>
    <i name="e_fr_energy">   -696.23886353 </i>
    <i name="e_wo_entrp">   -696.23886353 </i>
    <i name="e_0_energy">   -696.23886353 </i>
   </energy>
  </scstep>
  <scstep>
   <time name="dav">  242.65  244.67</time>
   <time name="total">  242.67  244.69</time>
   <energy>
    <i name="e_fr_energy">   -697.57461478 </i>
    <i name="e_wo_entrp">   -697.57461478 </i>
    <i name="e_0_energy">   -697.57461478 </i>
   </energy>
  </scstep>
  <scstep>
   <time name="dav">  275.07  277.21</time>
   <time name="total">  275.09  277.23</time>
   <energy>
    <i name="e_fr_energy">   -697.60992627 </i>
    <i name="e_wo_entrp">   -697.60992627 </i>
    <i name="e_0_energy">   -697.60992627 </i>
   </energy>
  </scstep>
  <scstep>
   <time name="dav">  240.89  242.77</time>
   <time name="total">  240.91  242.79</time>
   <energy>
    <i name="e_fr_energy">   -697.61052484 </i>
    <i name="e_wo_entrp">   -697.61052484 </i>
    <i name="e_0_energy">   -697.61052484 </i>
   </energy>
  </scstep>
  <scstep>
   <time name="dav">  243.03  244.93</time>
   <time name="total">  243.05  244.95</time>
   <energy>
    <i name="e_fr_energy">   -697.61055462 </i>
    <i name="e_wo_entrp">   -697.61055462 </i>
    <i name="e_0_energy">   -697.61055462 </i>
   </energy>
  </scstep>
  <scstep>
   <time name="dav">  193.00  194.52</time>
   <time name="total">  193.02  194.54</time>
   <energy>
    <i name="alphaZ">     77.20987039 </i>
    <i name="ewald">  40683.52405800 </i>
    <i name="hartreedc"> -53586.70318840 </i>
    <i name="XCdc">   1302.11936158 </i>
    <i name="pawpsdc">  33041.61685604 </i>
    <i name="pawaedc"> -33116.04991816 </i>
    <i name="eentropy">     -0.00000000 </i>
    <i name="bandstr">  -4522.21061734 </i>
    <i name="atom">  15422.88302194 </i>
    <i name="e_fr_energy">   -697.61055595 </i>
    <i name="e_wo_entrp">   -697.61055595 </i>
    <i name="e_0_energy">   -697.61055595 </i>
   </energy>
  </scstep>
  <structure>
   <crystal>
    <varray name="basis" >
     <v>      14.35064416       0.04437424       0.00000000 </v>
     <v>       0.08332361      24.76742246       0.00000000 </v>
     <v>       0.00000000       0.00000000      20.00000000 </v>
    </varray>
    <i name="volume">   7108.49537904 </i>
    <varray name="rec_basis" >
     <v>       0.06968401      -0.00023443       0.00000000 </v>
     <v>      -0.00012485       0.04037604       0.00000000 </v>
     <v>       0.00000000       0.00000000       0.05000000 </v>
    </varray>
   </crystal>
   <varray name="positions" >
    <v>       0.15386669       0.77378779       0.43772181 </v>
    <v>       0.65162768       0.27421347       0.43402220 </v>
    <v>       0.07661013       0.63636502       0.46018409 </v>
    <v>       0.98914863       0.71781324       0.44552311 </v>
    <v>       0.57439066       0.13695833       0.45816325 </v>
    <v>       0.48665509       0.21815923       0.44230348 </v>
    <v>       0.91152592       0.63306645       0.44727336 </v>
    <v>       0.41136725       0.85770614       0.46576316 </v>
    <v>       0.48679944       0.77443819       0.43888801 </v>
    <v>       0.57539975       0.85520237       0.44579434 </v>
    <v>       0.74365133       0.68636784       0.44179131 </v>
    <v>       0.07639063       0.52506391       0.47850094 </v>
    <v>       0.73464239       0.79773095       0.42674630 </v>
    <v>       0.41653379       0.96647566       0.44777607 </v>
    <v>       0.32252774       0.72370837       0.47004078 </v>
    <v>       0.40931059       0.13328656       0.44552403 </v>
    <v>       0.90992938       0.35748147       0.46402253 </v>
    <v>       0.98426926       0.27464359       0.43361878 </v>
    <v>       0.07402724       0.35470179       0.44460818 </v>
    <v>       0.24147121       0.18661614       0.44298722 </v>
    <v>       0.57539450       0.02596624       0.47735103 </v>
    <v>       0.23166366       0.29706067       0.41892287 </v>
    <v>       0.91658364       0.46647162       0.44881279 </v>
    <v>       0.82024390       0.22386722       0.46610884 </v>
    <v>       0.24542682       0.65350877       0.48355797 </v>
    <v>       0.74274865       0.15383353       0.47988417 </v>
    <v>       0.52415165       0.60912197       0.45097719 </v>
    <v>       0.63374282       0.60718843       0.40645975 </v>
    <v>       0.63349301       0.61486622       0.49525197 </v>
    <v>       0.71566381       0.00841280       0.56002646 </v>
    <v>       0.78669973       0.95158495       0.53435850 </v>
    <v>       0.75436367       0.00357701       0.47530147 </v>
    <v>       0.15777391       0.91823309       0.38797250 </v>
    <v>       0.11108903       0.85504314       0.35814123 </v>
    <v>       0.09463968       0.87404998       0.44349290 </v>
    <v>       0.87956336       0.79563992       0.42117403 </v>
    <v>       0.84982126       0.54087070       0.43747700 </v>
    <v>       0.02251863       0.11030884       0.46362988 </v>
    <v>       0.12964309       0.10608327       0.41634142 </v>
    <v>       0.13413919       0.11792224       0.50435476 </v>
    <v>       0.21771619       0.50662533       0.55992656 </v>
    <v>       0.28753697       0.44964826       0.53301976 </v>
    <v>       0.25437264       0.50205863       0.47474298 </v>
    <v>       0.65604514       0.41936932       0.38715317 </v>
    <v>       0.60789587       0.35697271       0.35596433 </v>
    <v>       0.59384753       0.37429181       0.44207235 </v>
    <v>       0.37635438       0.29444213       0.41026470 </v>
    <v>       0.34879150       0.04052613       0.43572616 </v>
    <v>       0.58408866       0.68212754       0.44144618 </v>
    <v>       0.65315056       0.94704582       0.50313736 </v>
    <v>       0.23191053       0.85298801       0.41757609 </v>
    <v>       0.08200960       0.18260631       0.44704644 </v>
    <v>       0.15323931       0.44574642       0.50336274 </v>
    <v>       0.73020055       0.35329740       0.41380128 </v>
    <v>       0.15777139       0.72123527       0.45405006 </v>
    <v>       0.24265274       0.69617074       0.47025532 </v>
    <v>       0.65538704       0.22168704       0.45053649 </v>
    <v>       0.74021606       0.19648429       0.46653248 </v>
    <v>       0.06929659       0.69033297       0.45329656 </v>
    <v>       0.56690668       0.19083201       0.45039203 </v>
    <v>       0.99561371       0.60981231       0.45622229 </v>
    <v>       0.91221272       0.68709635       0.44355965 </v>
    <v>       0.49527229       0.88120744       0.45840930 </v>
    <v>       0.41103404       0.80471248       0.45266880 </v>
    <v>       0.56768812       0.80119144       0.43931024 </v>
    <v>       0.65601330       0.76955658       0.43358639 </v>
    <v>       0.82138773       0.71581233       0.43713903 </v>
    <v>       0.66181675       0.71168537       0.43870831 </v>
    <v>       0.59547608       0.62445605       0.44904165 </v>
    <v>       0.49630638       0.94120347       0.46300060 </v>
    <v>       0.99644657       0.54997284       0.46159948 </v>
    <v>       0.57635103       0.97239531       0.48090757 </v>
    <v>       0.73235396       0.98027733       0.51921353 </v>
    <v>       0.32024793       0.77599143       0.45372666 </v>
    <v>       0.23312281       0.80114247       0.43678313 </v>
    <v>       0.14246733       0.87624319       0.40071815 </v>
    <v>       0.81648486       0.77185504       0.42744245 </v>
    <v>       0.91537425       0.52039730       0.44886857 </v>
    <v>       0.49356440       0.11023714       0.45453870 </v>
    <v>       0.40985949       0.18729655       0.44098941 </v>
    <v>       0.99412797       0.38082870       0.45756794 </v>
    <v>       0.90896007       0.30482290       0.44893911 </v>
    <v>       0.06551231       0.30099061       0.43582046 </v>
    <v>       0.15356089       0.26923077       0.42989226 </v>
    <v>       0.31889219       0.21575556       0.43420836 </v>
    <v>       0.15959335       0.21178986       0.43965105 </v>
    <v>       0.09369455       0.12539397       0.45861989 </v>
    <v>       0.99606361       0.44072615       0.46350466 </v>
    <v>       0.49511798       0.05041438       0.46025368 </v>
    <v>       0.07660333       0.47146960       0.48156038 </v>
    <v>       0.23317164       0.47861570       0.51874288 </v>
    <v>       0.81806923       0.27616582       0.44979169 </v>
    <v>       0.73104592       0.30141512       0.43293931 </v>
    <v>       0.64061904       0.37718117       0.39876522 </v>
    <v>       0.31355360       0.27115271       0.41995518 </v>
    <v>       0.41455677       0.02040327       0.44746911 </v>
   </varray>
  </structure>
  <varray name="forces" >
   <v>       0.00407062      -0.00086398       0.00630419 </v>
   <v>      -0.00396830       0.00387257      -0.00040558 </v>
   <v>      -0.00429293       0.00581329      -0.00286273 </v>
   <v>       0.00489494      -0.00125125      -0.00536491 </v>
   <v>      -0.01029762       0.00081370      -0.00022929 </v>
   <v>       0.00121793       0.00379022      -0.00292263 </v>
   <v>       0.00283287       0.00218167      -0.00060073 </v>
   <v>       0.00763419       0.00197487       0.00200157 </v>
   <v>      -0.00431571      -0.00540905       0.00152554 </v>
   <v>       0.00004384       0.00217126       0.00112391 </v>
   <v>       0.00166683      -0.00547307       0.00129700 </v>
   <v>       0.00169221      -0.00664406       0.00164452 </v>
   <v>       0.00313639       0.00610830      -0.00354960 </v>
   <v>      -0.00283065      -0.00142338      -0.00083457 </v>
   <v>       0.00557910      -0.00156905       0.00275253 </v>
   <v>       0.00520434       0.00233492      -0.00109198 </v>
   <v>      -0.00185428       0.00056317      -0.00746743 </v>
   <v>      -0.00178172      -0.00431776      -0.00090144 </v>
   <v>      -0.00777450      -0.00004286      -0.00223392 </v>
   <v>       0.00825003       0.00141272      -0.00512460 </v>
   <v>       0.00300067      -0.00223810       0.00097003 </v>
   <v>       0.00162052       0.00535888       0.00264042 </v>
   <v>      -0.00494604      -0.00265293      -0.00358559 </v>
   <v>      -0.00168691       0.00154082       0.00422968 </v>
   <v>      -0.00435601      -0.00117224       0.00006288 </v>
   <v>      -0.00012981      -0.00208713       0.00034474 </v>
   <v>       0.00485991       0.00304491       0.00110348 </v>
   <v>       0.00154009       0.00086026      -0.00003883 </v>
   <v>      -0.00069659      -0.00247745      -0.00086360 </v>
   <v>      -0.00283510       0.00019469       0.00040910 </v>
   <v>      -0.00462258       0.00013689      -0.00009178 </v>
   <v>      -0.00244209       0.00024394       0.00431335 </v>
   <v>       0.00209180       0.00030086      -0.00042868 </v>
   <v>      -0.00420999       0.00020240      -0.00306837 </v>
   <v>      -0.00117533       0.00126497      -0.00031641 </v>
   <v>       0.00076689      -0.00137022      -0.00053031 </v>
   <v>      -0.00065501       0.00148430      -0.00154919 </v>
   <v>      -0.00050010       0.00072567       0.00029916 </v>
   <v>       0.00062354       0.00044497       0.00237726 </v>
   <v>      -0.00135166      -0.00077889      -0.00014673 </v>
   <v>      -0.00256309      -0.00063242       0.00291035 </v>
   <v>      -0.00143261       0.00049690       0.00424897 </v>
   <v>       0.00059490       0.00000184       0.00534824 </v>
   <v>       0.00153327      -0.00031311      -0.00707900 </v>
   <v>       0.00331421      -0.00182989      -0.00400295 </v>
   <v>      -0.00121616       0.00041083      -0.00237874 </v>
   <v>      -0.00206174       0.00087602      -0.00023313 </v>
   <v>       0.00209720      -0.00185591      -0.00065220 </v>
   <v>       0.00658958      -0.00425368      -0.00054402 </v>
   <v>       0.00614284      -0.00185422       0.00359684 </v>
   <v>       0.00162671       0.00488454      -0.00257777 </v>
   <v>      -0.00032454      -0.00553231       0.00331074 </v>
   <v>       0.00008596      -0.00505395       0.00348398 </v>
   <v>       0.00054907      -0.00047703      -0.00055271 </v>
   <v>      -0.00649382      -0.00456154      -0.00281767 </v>
   <v>      -0.00522500      -0.00154930       0.00161338 </v>
   <v>      -0.00049057       0.00391198      -0.00059786 </v>
   <v>      -0.00401033       0.00172562       0.00030475 </v>
   <v>       0.00450775      -0.00569497      -0.00452928 </v>
   <v>       0.00033469      -0.00504956       0.00312027 </v>
   <v>      -0.00010336       0.00727791      -0.00118446 </v>
   <v>       0.00010379      -0.00408941      -0.00195049 </v>
   <v>      -0.00161817      -0.00242906       0.00282931 </v>
   <v>       0.00326816       0.00394426       0.00118126 </v>
   <v>       0.00192210       0.00836981       0.00097079 </v>
   <v>      -0.00304307       0.00062847      -0.00409205 </v>
   <v>       0.00264573      -0.00658350      -0.00011586 </v>
   <v>       0.00159954      -0.00175459      -0.00396349 </v>
   <v>      -0.00140480       0.00136795      -0.00083328 </v>
   <v>       0.00241773      -0.00277484       0.00003489 </v>
   <v>       0.00243569      -0.00056524       0.00290663 </v>
   <v>      -0.00381860       0.00042027       0.00192351 </v>
   <v>      -0.00075483       0.00080877       0.00190258 </v>
   <v>       0.00526530       0.00513435       0.00286995 </v>
   <v>       0.00157049      -0.00264484       0.00056879 </v>
   <v>       0.00323999      -0.00195300      -0.00037743 </v>
   <v>       0.00319719       0.00279975      -0.00269006 </v>
   <v>      -0.00211761       0.00322630       0.00217416 </v>
   <v>      -0.00212729       0.00056931       0.00313172 </v>
   <v>      -0.00083489      -0.00934568       0.00225715 </v>
   <v>       0.00066580      -0.00045403      -0.00029836 </v>
   <v>       0.00277205       0.00386146      -0.00016277 </v>
   <v>       0.00541663       0.00152774       0.00124318 </v>
   <v>      -0.00083251       0.00231930       0.00071917 </v>
   <v>       0.00180220      -0.00450712       0.00242110 </v>
   <v>      -0.00882485      -0.00308740      -0.00022688 </v>
   <v>       0.00094153       0.00500989      -0.00033417 </v>
   <v>      -0.00049438      -0.00027480       0.00191191 </v>
   <v>      -0.00492960       0.00476196      -0.00315065 </v>
   <v>      -0.00343932      -0.00121468       0.00316615 </v>
   <v>      -0.00148694      -0.00068228       0.00377486 </v>
   <v>      -0.00087579       0.00220910      -0.00363094 </v>
   <v>       0.00297931       0.00269483       0.00207284 </v>
   <v>       0.00123631       0.00134741      -0.00160137 </v>
   <v>      -0.00550290       0.00102110       0.00053379 </v>
   <v>       0.00116726       0.00234186      -0.00514408 </v>
  </varray>
  <varray name="stress" >
   <v>      -0.03575604       0.01161847      -0.01165630 </v>
   <v>       0.01161847      -0.03915385      -0.00723172 </v>
   <v>      -0.01165630      -0.00723172      -0.32808901 </v>
  </varray>
  <energy>
   <i name="e_fr_energy">   -699.61727570 </i>
   <i name="e_wo_entrp">   -699.61727570 </i>
   <i name="e_0_energy">     -0.00000000 </i>
  </energy>
  <time name="totalsc"> 1581.98 1594.96</time>
  <eigenvalues>
   <array>
    <dimension dim="1">band</dimension>
    <dimension dim="2">kpoint</dimension>
    <dimension dim="3">spin</dimension>
    <field>eigene</field>
    <field>occ</field>
    <set>
     <set comment="spin 1">
      <set comment="kpoint 1">
       <r>  -26.7513    1.0000 </r>
       <r>  -26.7420    1.0000 </r>
       <r>  -26.7293    1.0000 </r>
       <r>  -26.7287    1.0000 </r>
       <r>  -26.7258    1.0000 </r>
       <r>  -26.7247    1.0000 </r>
       <r>  -25.3274    1.0000 </r>
       <r>  -25.3236    1.0000 </r>
       <r>  -25.0355    1.0000 </r>
       <r>  -25.0266    1.0000 </r>
       <r>  -24.0487    1.0000 </r>
       <r>  -24.0421    1.0000 </r>
       <r>  -24.0416    1.0000 </r>
       <r>  -23.9993    1.0000 </r>
       <r>  -23.9296    1.0000 </r>
       <r>  -23.8727    1.0000 </r>
       <r>  -22.5643    1.0000 </r>
       <r>  -22.5629    1.0000 </r>
       <r>  -22.5621    1.0000 </r>
       <r>  -22.4621    1.0000 </r>
       <r>  -22.3181    1.0000 </r>
       <r>  -22.1379    1.0000 </r>
       <r>  -22.0316    1.0000 </r>
       <r>  -22.0303    1.0000 </r>
       <r>  -22.0275    1.0000 </r>
       <r>  -21.9271    1.0000 </r>
       <r>  -21.7020    1.0000 </r>
       <r>  -21.6903    1.0000 </r>
       <r>  -21.6869    1.0000 </r>
       <r>  -21.6820    1.0000 </r>
       <r>  -19.2114    1.0000 </r>
       <r>  -19.2086    1.0000 </r>
       <r>  -19.2001    1.0000 </r>
       <r>  -19.1762    1.0000 </r>
       <r>  -19.0992    1.0000 </r>
       <r>  -19.0408    1.0000 </r>
       <r>  -17.8738    1.0000 </r>
       <r>  -17.8654    1.0000 </r>
       <r>  -17.8221    1.0000 </r>
       <r>  -17.6820    1.0000 </r>
       <r>  -17.4131    1.0000 </r>
       <r>  -17.3513    1.0000 </r>
       <r>  -17.3344    1.0000 </r>
       <r>  -17.2727    1.0000 </r>
       <r>  -17.2441    1.0000 </r>
       <r>  -17.2023    1.0000 </r>
       <r>  -16.9466    1.0000 </r>
       <r>  -16.5991    1.0000 </r>
       <r>  -15.9586    1.0000 </r>
       <r>  -15.9354    1.0000 </r>
       <r>  -15.9090    1.0000 </r>
       <r>  -15.5224    1.0000 </r>
       <r>  -15.2992    1.0000 </r>
       <r>  -15.2964    1.0000 </r>
       <r>  -15.0866    1.0000 </r>
       <r>  -15.0719    1.0000 </r>
       <r>  -14.9999    1.0000 </r>
       <r>  -14.9556    1.0000 </r>
       <r>  -14.7761    1.0000 </r>
       <r>  -14.6524    1.0000 </r>
       <r>  -14.5099    1.0000 </r>
       <r>  -14.4867    1.0000 </r>
       <r>  -13.9175    1.0000 </r>
       <r>  -13.6542    1.0000 </r>
       <r>  -13.3569    1.0000 </r>
       <r>  -13.2463    1.0000 </r>
       <r>  -13.2273    1.0000 </r>
       <r>  -13.0320    1.0000 </r>
       <r>  -12.9833    1.0000 </r>
       <r>  -12.7594    1.0000 </r>
       <r>  -12.7514    1.0000 </r>
       <r>  -12.7509    1.0000 </r>
       <r>  -12.6986    1.0000 </r>
       <r>  -12.5479    1.0000 </r>
       <r>  -12.4052    1.0000 </r>
       <r>  -12.3808    1.0000 </r>
       <r>  -12.3600    1.0000 </r>
       <r>  -12.1556    1.0000 </r>
       <r>  -12.0660    1.0000 </r>
       <r>  -12.0272    1.0000 </r>
       <r>  -11.6830    1.0000 </r>
       <r>  -11.5829    1.0000 </r>
       <r>  -11.4280    1.0000 </r>
       <r>  -11.4053    1.0000 </r>
       <r>  -11.3775    1.0000 </r>
       <r>  -11.3696    1.0000 </r>
       <r>  -11.3488    1.0000 </r>
       <r>  -11.2656    1.0000 </r>
       <r>  -11.1927    1.0000 </r>
       <r>  -11.1776    1.0000 </r>
       <r>  -11.1745    1.0000 </r>
       <r>  -11.1599    1.0000 </r>
       <r>  -11.0021    1.0000 </r>
       <r>  -10.9485    1.0000 </r>
       <r>  -10.6420    1.0000 </r>
       <r>  -10.6371    1.0000 </r>
       <r>  -10.5403    1.0000 </r>
       <r>  -10.2280    1.0000 </r>
       <r>  -10.2068    1.0000 </r>
       <r>  -10.2040    1.0000 </r>
       <r>  -10.1068    1.0000 </r>
       <r>  -10.0505    1.0000 </r>
       <r>  -10.0289    1.0000 </r>
       <r>   -9.9944    1.0000 </r>
       <r>   -9.9796    1.0000 </r>
       <r>   -9.9686    1.0000 </r>
       <r>   -9.9094    1.0000 </r>
       <r>   -9.9063    1.0000 </r>
       <r>   -9.8986    1.0000 </r>
       <r>   -9.8830    1.0000 </r>
       <r>   -9.8378    1.0000 </r>
       <r>   -9.7348    1.0000 </r>
       <r>   -9.6285    1.0000 </r>
       <r>   -9.5428    1.0000 </r>
       <r>   -9.3422    1.0000 </r>
       <r>   -9.2909    1.0000 </r>
       <r>   -9.2549    1.0000 </r>
       <r>   -9.2454    1.0000 </r>
       <r>   -8.7103    1.0000 </r>
       <r>   -8.6918    1.0000 </r>
       <r>   -8.6693    1.0000 </r>
       <r>   -8.5706    1.0000 </r>
       <r>   -8.5378    1.0000 </r>
       <r>   -8.4493    1.0000 </r>
       <r>   -8.3928    1.0000 </r>
       <r>   -8.3696    1.0000 </r>
       <r>   -8.1443    1.0000 </r>
       <r>   -8.1101    1.0000 </r>
       <r>   -8.1036    1.0000 </r>
       <r>   -8.0835    1.0000 </r>
       <r>   -8.0371    1.0000 </r>
       <r>   -8.0341    1.0000 </r>
       <r>   -7.8937    1.0000 </r>
       <r>   -7.8585    1.0000 </r>
       <r>   -7.8305    1.0000 </r>
       <r>   -7.8279    1.0000 </r>
       <r>   -7.7454    1.0000 </r>
       <r>   -7.6440    1.0000 </r>
       <r>   -7.6264    1.0000 </r>
       <r>   -7.5368    1.0000 </r>
       <r>   -7.3824    1.0000 </r>
       <r>   -7.3640    1.0000 </r>
       <r>   -7.2892    1.0000 </r>
       <r>   -7.0301    1.0000 </r>
       <r>   -6.9642    1.0000 </r>
       <r>   -6.8722    1.0000 </r>
       <r>   -6.8664    1.0000 </r>
       <r>   -6.8395    1.0000 </r>
       <r>   -6.6883    1.0000 </r>
       <r>   -6.6807    1.0000 </r>
       <r>   -6.6686    1.0000 </r>
       <r>   -6.6201    1.0000 </r>
       <r>   -6.5712    1.0000 </r>
       <r>   -6.5154    1.0000 </r>
       <r>   -5.8773    1.0000 </r>
       <r>   -5.8726    1.0000 </r>
       <r>   -5.8584    1.0000 </r>
       <r>   -5.8323    1.0000 </r>
       <r>   -5.5748    1.0000 </r>
       <r>   -5.5594    1.0000 </r>
       <r>   -5.4923    1.0000 </r>
       <r>   -5.4811    1.0000 </r>
       <r>   -5.4627    1.0000 </r>
       <r>   -5.4471    1.0000 </r>
       <r>   -5.4378    1.0000 </r>
       <r>   -5.3956    1.0000 </r>
       <r>   -5.3683    1.0000 </r>
       <r>   -5.3557    1.0000 </r>
       <r>   -5.3401    1.0000 </r>
       <r>   -5.2794    1.0000 </r>
       <r>   -5.1139    1.0000 </r>
       <r>   -5.0922    1.0000 </r>
       <r>   -5.0670    1.0000 </r>
       <r>   -5.0422    1.0000 </r>
       <r>   -3.1544    0.0000 </r>
       <r>   -3.1281    0.0000 </r>
       <r>   -3.0914    0.0000 </r>
       <r>   -2.9072    0.0000 </r>
       <r>   -2.5472    0.0000 </r>
       <r>   -2.0604    0.0000 </r>
       <r>   -1.6949    0.0000 </r>
       <r>   -1.6463    0.0000 </r>
       <r>   -1.5982    0.0000 </r>
       <r>   -1.3966    0.0000 </r>
       <r>   -1.2478    0.0000 </r>
       <r>   -1.2383    0.0000 </r>
       <r>   -1.1796    0.0000 </r>
       <r>   -1.1487    0.0000 </r>
       <r>   -1.0990    0.0000 </r>
       <r>   -0.6662    0.0000 </r>
       <r>   -0.1952    0.0000 </r>
       <r>   -0.1253    0.0000 </r>
       <r>   -0.0670    0.0000 </r>
       <r>    0.1630    0.0000 </r>
       <r>    0.4452    0.0000 </r>
       <r>    0.4525    0.0000 </r>
       <r>    0.4688    0.0000 </r>
       <r>    0.4795    0.0000 </r>
       <r>    0.4914    0.0000 </r>
       <r>    0.5091    0.0000 </r>
       <r>    0.5655    0.0000 </r>
       <r>    0.6777    0.0000 </r>
       <r>    0.7337    0.0000 </r>
       <r>    0.7797    0.0000 </r>
       <r>    0.8191    0.0000 </r>
       <r>    0.8488    0.0000 </r>
       <r>    0.8637    0.0000 </r>
       <r>    0.9098    0.0000 </r>
       <r>    0.9794    0.0000 </r>
       <r>    1.0129    0.0000 </r>
       <r>    1.0634    0.0000 </r>
       <r>    1.1893    0.0000 </r>
       <r>    1.2053    0.0000 </r>
       <r>    1.2425    0.0000 </r>
       <r>    1.2831    0.0000 </r>
       <r>    1.2976    0.0000 </r>
       <r>    1.3334    0.0000 </r>
       <r>    1.3516    0.0000 </r>
       <r>    1.4003    0.0000 </r>
       <r>    1.4069    0.0000 </r>
       <r>    1.5075    0.0000 </r>
       <r>    1.5426    0.0000 </r>
       <r>    1.5642    0.0000 </r>
       <r>    1.5742    0.0000 </r>
      </set>
      <set comment="kpoint 2">
       <r>  -26.7513    1.0000 </r>
       <r>  -26.7420    1.0000 </r>
       <r>  -26.7293    1.0000 </r>
       <r>  -26.7287    1.0000 </r>
       <r>  -26.7258    1.0000 </r>
       <r>  -26.7247    1.0000 </r>
       <r>  -25.3274    1.0000 </r>
       <r>  -25.3236    1.0000 </r>
       <r>  -25.0355    1.0000 </r>
       <r>  -25.0266    1.0000 </r>
       <r>  -24.0487    1.0000 </r>
       <r>  -24.0421    1.0000 </r>
       <r>  -24.0415    1.0000 </r>
       <r>  -23.9991    1.0000 </r>
       <r>  -23.9298    1.0000 </r>
       <r>  -23.8730    1.0000 </r>
       <r>  -22.5641    1.0000 </r>
       <r>  -22.5627    1.0000 </r>
       <r>  -22.5621    1.0000 </r>
       <r>  -22.4618    1.0000 </r>
       <r>  -22.3185    1.0000 </r>
       <r>  -22.1392    1.0000 </r>
       <r>  -22.0317    1.0000 </r>
       <r>  -22.0304    1.0000 </r>
       <r>  -22.0263    1.0000 </r>
       <r>  -21.9269    1.0000 </r>
       <r>  -21.7020    1.0000 </r>
       <r>  -21.6903    1.0000 </r>
       <r>  -21.6869    1.0000 </r>
       <r>  -21.6820    1.0000 </r>
       <r>  -19.2115    1.0000 </r>
       <r>  -19.2086    1.0000 </r>
       <r>  -19.2000    1.0000 </r>
       <r>  -19.1760    1.0000 </r>
       <r>  -19.0994    1.0000 </r>
       <r>  -19.0411    1.0000 </r>
       <r>  -17.8734    1.0000 </r>
       <r>  -17.8647    1.0000 </r>
       <r>  -17.8217    1.0000 </r>
       <r>  -17.6820    1.0000 </r>
       <r>  -17.4133    1.0000 </r>
       <r>  -17.3514    1.0000 </r>
       <r>  -17.3345    1.0000 </r>
       <r>  -17.2725    1.0000 </r>
       <r>  -17.2443    1.0000 </r>
       <r>  -17.2018    1.0000 </r>
       <r>  -16.9475    1.0000 </r>
       <r>  -16.6015    1.0000 </r>
       <r>  -15.9587    1.0000 </r>
       <r>  -15.9331    1.0000 </r>
       <r>  -15.9089    1.0000 </r>
       <r>  -15.5213    1.0000 </r>
       <r>  -15.2997    1.0000 </r>
       <r>  -15.2963    1.0000 </r>
       <r>  -15.0864    1.0000 </r>
       <r>  -15.0716    1.0000 </r>
       <r>  -15.0002    1.0000 </r>
       <r>  -14.9547    1.0000 </r>
       <r>  -14.7767    1.0000 </r>
       <r>  -14.6529    1.0000 </r>
       <r>  -14.5106    1.0000 </r>
       <r>  -14.4878    1.0000 </r>
       <r>  -13.9164    1.0000 </r>
       <r>  -13.6534    1.0000 </r>
       <r>  -13.3577    1.0000 </r>
       <r>  -13.2464    1.0000 </r>
       <r>  -13.2274    1.0000 </r>
       <r>  -13.0327    1.0000 </r>
       <r>  -12.9833    1.0000 </r>
       <r>  -12.7706    1.0000 </r>
       <r>  -12.7519    1.0000 </r>
       <r>  -12.7470    1.0000 </r>
       <r>  -12.6923    1.0000 </r>
       <r>  -12.5472    1.0000 </r>
       <r>  -12.4045    1.0000 </r>
       <r>  -12.3798    1.0000 </r>
       <r>  -12.3600    1.0000 </r>
       <r>  -12.1554    1.0000 </r>
       <r>  -12.0659    1.0000 </r>
       <r>  -12.0270    1.0000 </r>
       <r>  -11.6833    1.0000 </r>
       <r>  -11.5834    1.0000 </r>
       <r>  -11.4278    1.0000 </r>
       <r>  -11.4055    1.0000 </r>
       <r>  -11.3768    1.0000 </r>
       <r>  -11.3690    1.0000 </r>
       <r>  -11.3487    1.0000 </r>
       <r>  -11.2656    1.0000 </r>
       <r>  -11.1931    1.0000 </r>
       <r>  -11.1811    1.0000 </r>
       <r>  -11.1711    1.0000 </r>
       <r>  -11.1601    1.0000 </r>
       <r>  -11.0017    1.0000 </r>
       <r>  -10.9484    1.0000 </r>
       <r>  -10.6420    1.0000 </r>
       <r>  -10.6371    1.0000 </r>
       <r>  -10.5409    1.0000 </r>
       <r>  -10.2301    1.0000 </r>
       <r>  -10.2067    1.0000 </r>
       <r>  -10.2047    1.0000 </r>
       <r>  -10.1052    1.0000 </r>
       <r>  -10.0505    1.0000 </r>
       <r>  -10.0289    1.0000 </r>
       <r>   -9.9944    1.0000 </r>
       <r>   -9.9795    1.0000 </r>
       <r>   -9.9687    1.0000 </r>
       <r>   -9.9098    1.0000 </r>
       <r>   -9.9069    1.0000 </r>
       <r>   -9.8980    1.0000 </r>
       <r>   -9.8837    1.0000 </r>
       <r>   -9.8358    1.0000 </r>
       <r>   -9.7353    1.0000 </r>
       <r>   -9.6279    1.0000 </r>
       <r>   -9.5437    1.0000 </r>
       <r>   -9.3425    1.0000 </r>
       <r>   -9.2908    1.0000 </r>
       <r>   -9.2550    1.0000 </r>
       <r>   -9.2452    1.0000 </r>
       <r>   -8.7099    1.0000 </r>
       <r>   -8.6917    1.0000 </r>
       <r>   -8.6689    1.0000 </r>
       <r>   -8.5703    1.0000 </r>
       <r>   -8.5377    1.0000 </r>
       <r>   -8.4490    1.0000 </r>
       <r>   -8.3926    1.0000 </r>
       <r>   -8.3697    1.0000 </r>
       <r>   -8.1448    1.0000 </r>
       <r>   -8.1101    1.0000 </r>
       <r>   -8.1035    1.0000 </r>
       <r>   -8.0836    1.0000 </r>
       <r>   -8.0371    1.0000 </r>
       <r>   -8.0341    1.0000 </r>
       <r>   -7.8940    1.0000 </r>
       <r>   -7.8585    1.0000 </r>
       <r>   -7.8305    1.0000 </r>
       <r>   -7.8279    1.0000 </r>
       <r>   -7.7456    1.0000 </r>
       <r>   -7.6445    1.0000 </r>
       <r>   -7.6261    1.0000 </r>
       <r>   -7.5368    1.0000 </r>
       <r>   -7.3827    1.0000 </r>
       <r>   -7.3662    1.0000 </r>
       <r>   -7.2865    1.0000 </r>
       <r>   -7.0297    1.0000 </r>
       <r>   -6.9644    1.0000 </r>
       <r>   -6.8724    1.0000 </r>
       <r>   -6.8663    1.0000 </r>
       <r>   -6.8395    1.0000 </r>
       <r>   -6.6883    1.0000 </r>
       <r>   -6.6807    1.0000 </r>
       <r>   -6.6686    1.0000 </r>
       <r>   -6.6199    1.0000 </r>
       <r>   -6.5714    1.0000 </r>
       <r>   -6.5156    1.0000 </r>
       <r>   -5.8771    1.0000 </r>
       <r>   -5.8725    1.0000 </r>
       <r>   -5.8583    1.0000 </r>
       <r>   -5.8323    1.0000 </r>
       <r>   -5.5747    1.0000 </r>
       <r>   -5.5594    1.0000 </r>
       <r>   -5.4924    1.0000 </r>
       <r>   -5.4811    1.0000 </r>
       <r>   -5.4628    1.0000 </r>
       <r>   -5.4472    1.0000 </r>
       <r>   -5.4378    1.0000 </r>
       <r>   -5.3960    1.0000 </r>
       <r>   -5.3682    1.0000 </r>
       <r>   -5.3558    1.0000 </r>
       <r>   -5.3397    1.0000 </r>
       <r>   -5.2792    1.0000 </r>
       <r>   -5.1140    1.0000 </r>
       <r>   -5.0922    1.0000 </r>
       <r>   -5.0670    1.0000 </r>
       <r>   -5.0422    1.0000 </r>
       <r>   -3.1539    0.0000 </r>
       <r>   -3.1279    0.0000 </r>
       <r>   -3.0912    0.0000 </r>
       <r>   -2.9068    0.0000 </r>
       <r>   -2.5482    0.0000 </r>
       <r>   -2.0644    0.0000 </r>
       <r>   -1.6950    0.0000 </r>
       <r>   -1.6434    0.0000 </r>
       <r>   -1.5982    0.0000 </r>
       <r>   -1.3962    0.0000 </r>
       <r>   -1.2476    0.0000 </r>
       <r>   -1.2384    0.0000 </r>
       <r>   -1.1799    0.0000 </r>
       <r>   -1.1484    0.0000 </r>
       <r>   -1.0974    0.0000 </r>
       <r>   -0.6651    0.0000 </r>
       <r>   -0.1948    0.0000 </r>
       <r>   -0.1265    0.0000 </r>
       <r>   -0.0668    0.0000 </r>
       <r>    0.1633    0.0000 </r>
       <r>    0.4421    0.0000 </r>
       <r>    0.4509    0.0000 </r>
       <r>    0.4633    0.0000 </r>
       <r>    0.4821    0.0000 </r>
       <r>    0.4883    0.0000 </r>
       <r>    0.5090    0.0000 </r>
       <r>    0.5718    0.0000 </r>
       <r>    0.6770    0.0000 </r>
       <r>    0.7326    0.0000 </r>
       <r>    0.7805    0.0000 </r>
       <r>    0.8196    0.0000 </r>
       <r>    0.8436    0.0000 </r>
       <r>    0.8662    0.0000 </r>
       <r>    0.9151    0.0000 </r>
       <r>    0.9823    0.0000 </r>
       <r>    1.0114    0.0000 </r>
       <r>    1.0628    0.0000 </r>
       <r>    1.1847    0.0000 </r>
[...]
       <r>   -24.9407     0.0000    20.0000 </r>
       <r>   -24.8364     0.0000    20.0000 </r>
       <r>   -24.7322     0.0000    20.0000 </r>
       <r>   -24.6279     0.0000    20.0000 </r>
       <r>   -24.5236     0.0000    20.0000 </r>
       <r>   -24.4193     0.0000    20.0000 </r>
       <r>   -24.3151     0.0000    20.0000 </r>
       <r>   -24.2108     0.0000    20.0000 </r>
       <r>   -24.1065     0.0000    20.0000 </r>
       <r>   -24.0023    52.2550    25.4488 </r>
       <r>   -23.8980    32.6160    31.3343 </r>
       <r>   -23.7937     1.1186    32.0000 </r>
       <r>   -23.6894     0.0000    32.0000 </r>
       <r>   -23.5852     0.0000    32.0000 </r>
       <r>   -23.4809     0.0000    32.0000 </r>
       <r>   -23.3766     0.0000    32.0000 </r>
       <r>   -23.2723     0.0000    32.0000 </r>
       <r>   -23.1681     0.0000    32.0000 </r>
       <r>   -23.0638     0.0000    32.0000 </r>
       <r>   -22.9595     0.0000    32.0000 </r>
       <r>   -22.8552     0.0000    32.0000 </r>
       <r>   -22.7510     0.0000    32.0000 </r>
       <r>   -22.6467     0.0000    32.0000 </r>
       <r>   -22.5424    41.7601    36.3545 </r>
       <r>   -22.4381    30.4395    39.8907 </r>
       <r>   -22.3339     2.7363    40.2853 </r>
       <r>   -22.2296     7.8934    43.4231 </r>
       <r>   -22.1253     3.9680    43.9971 </r>
       <r>   -22.0211    37.1771    47.8766 </r>
       <r>   -21.9168    30.2800    51.4741 </r>
       <r>   -21.8125     0.0000    52.0000 </r>
       <r>   -21.7082     7.0697    52.7372 </r>
       <r>   -21.6040    19.1778    60.0000 </r>
       <r>   -21.4997     0.0000    60.0000 </r>
       <r>   -21.3954     0.0000    60.0000 </r>
       <r>   -21.2911     0.0000    60.0000 </r>
       <r>   -21.1869     0.0000    60.0000 </r>
       <r>   -21.0826     0.0000    60.0000 </r>
       <r>   -20.9783     0.0000    60.0000 </r>
       <r>   -20.8740     0.0000    60.0000 </r>
       <r>   -20.7698     0.0000    60.0000 </r>
       <r>   -20.6655     0.0000    60.0000 </r>
       <r>   -20.5612     0.0000    60.0000 </r>
       <r>   -20.4570     0.0000    60.0000 </r>
       <r>   -20.3527     0.0000    60.0000 </r>
       <r>   -20.2484     0.0000    60.0000 </r>
       <r>   -20.1441     0.0000    60.0000 </r>
       <r>   -20.0399     0.0000    60.0000 </r>
       <r>   -19.9356     0.0000    60.0000 </r>
       <r>   -19.8313     0.0000    60.0000 </r>
       <r>   -19.7270     0.0000    60.0000 </r>
       <r>   -19.6228     0.0000    60.0000 </r>
       <r>   -19.5185     0.0000    60.0000 </r>
       <r>   -19.4142     0.0000    60.0000 </r>
       <r>   -19.3099     0.0000    60.0000 </r>
       <r>   -19.2057    32.0673    63.3438 </r>
       <r>   -19.1014    44.7091    69.7620 </r>
       <r>   -18.9971     8.4712    72.0000 </r>
       <r>   -18.8928     0.0000    72.0000 </r>
       <r>   -18.7886     0.0000    72.0000 </r>
       <r>   -18.6843     0.0000    72.0000 </r>
       <r>   -18.5800     0.0000    72.0000 </r>
       <r>   -18.4758     0.0000    72.0000 </r>
       <r>   -18.3715     0.0000    72.0000 </r>
       <r>   -18.2672     0.0000    72.0000 </r>
       <r>   -18.1629     0.0000    72.0000 </r>
       <r>   -18.0587     0.0000    72.0000 </r>
       <r>   -17.9544     0.0000    72.0000 </r>
       <r>   -17.8501     7.3808    72.7696 </r>
       <r>   -17.7458    23.1700    76.9994 </r>
       <r>   -17.6416    27.1715    79.9999 </r>
       <r>   -17.5373     0.0000    80.0000 </r>
       <r>   -17.4330     0.7138    80.0744 </r>
       <r>   -17.3287    18.4601    84.5249 </r>
       <r>   -17.2245    23.0411    89.5359 </r>
       <r>   -17.1202     2.5573    92.0000 </r>
       <r>   -17.0159     0.3502    92.0365 </r>
       <r>   -16.9116    25.0381    94.7608 </r>
       <r>   -16.8074     3.7154    95.2708 </r>
       <r>   -16.7031     1.3790    95.6438 </r>
       <r>   -16.5988     2.6577    95.9605 </r>
       <r>   -16.4946     0.0000    96.0000 </r>
       <r>   -16.3903     0.0000    96.0000 </r>
       <r>   -16.2860     0.0000    96.0000 </r>
       <r>   -16.1817     0.0000    96.0000 </r>
       <r>   -16.0775     0.0000    96.0000 </r>
       <r>   -15.9732     0.0658    96.0069 </r>
       <r>   -15.8689    34.7909   100.2279 </r>
       <r>   -15.7646     1.3867   100.4279 </r>
       <r>   -15.6604     3.7176   100.8543 </r>
       <r>   -15.5561     3.8477   101.3346 </r>
       <r>   -15.4518     7.8787   103.8716 </r>
       <r>   -15.3475     1.6520   104.1056 </r>
       <r>   -15.2433    36.4425   108.0000 </r>
       <r>   -15.1390     0.0000   108.0000 </r>
       <r>   -15.0347    15.5838   109.6250 </r>
       <r>   -14.9305    50.0075   115.7812 </r>
       <r>   -14.8262     2.0861   116.0842 </r>
       <r>   -14.7219    24.7567   118.7481 </r>
       <r>   -14.6176    32.9135   122.3153 </r>
       <r>   -14.5134     9.4273   123.6330 </r>
       <r>   -14.4091     0.9589   124.0000 </r>
       <r>   -14.3048     0.0000   124.0000 </r>
       <r>   -14.2005     0.0000   124.0000 </r>
       <r>   -14.0963     0.0000   124.0000 </r>
       <r>   -13.9920     0.0000   124.0000 </r>
       <r>   -13.8877     2.4873   124.2594 </r>
       <r>   -13.7834     4.2567   124.7939 </r>
       <r>   -13.6792     7.3555   125.7003 </r>
       <r>   -13.5749    12.6379   127.9845 </r>
       <r>   -13.4706     0.0000   128.0000 </r>
       <r>   -13.3663     6.1264   128.6388 </r>
       <r>   -13.2621     6.8781   131.2505 </r>
       <r>   -13.1578    30.9915   135.2316 </r>
       <r>   -13.0535     2.3340   135.7434 </r>
       <r>   -12.9493    32.1971   139.3573 </r>
       <r>   -12.8450     1.8732   139.7787 </r>
       <r>   -12.7407    31.1688   143.0834 </r>
       <r>   -12.6364     2.2242   144.2319 </r>
       <r>   -12.5322    28.6556   147.3047 </r>
       <r>   -12.4279     0.0005   148.0001 </r>
       <r>   -12.3236    40.8158   152.3393 </r>
       <r>   -12.2193     4.7751   152.8979 </r>
       <r>   -12.1151    28.1275   155.9996 </r>
       <r>   -12.0108    36.4384   159.7996 </r>
       <r>   -11.9065     0.0000   160.0000 </r>
       <r>   -11.8022     0.0000   160.0000 </r>
       <r>   -11.6980     2.1376   160.2229 </r>
       <r>   -11.5937    10.6657   163.7788 </r>
       <r>   -11.4894     0.0000   164.0000 </r>
       <r>   -11.3851    37.6784   167.9289 </r>
       <r>   -11.2809    48.6524   174.1732 </r>
       <r>   -11.1766    39.8619   180.1565 </r>
       <r>   -11.0723    14.8646   184.0000 </r>
       <r>   -10.9681     6.7889   184.7079 </r>
       <r>   -10.8638    12.3069   188.0000 </r>
       <r>   -10.7595     0.0000   188.0000 </r>
       <r>   -10.6552     2.9128   188.3037 </r>
       <r>   -10.5510    12.4846   193.3018 </r>
       <r>   -10.4467     4.3864   195.0907 </r>
       <r>   -10.3424     3.6606   195.5984 </r>
       <r>   -10.2381     2.2093   195.8804 </r>
       <r>   -10.1339    25.0940   200.0000 </r>
       <r>   -10.0296    32.6482   203.4043 </r>
       <r>    -9.9253    87.5085   213.8082 </r>
       <r>    -9.8210    35.5350   220.1554 </r>
       <r>    -9.7168    29.7447   223.3683 </r>
       <r>    -9.6125    29.6957   226.9798 </r>
       <r>    -9.5082     3.5164   228.0000 </r>
       <r>    -9.4040     0.0000   228.0000 </r>
       <r>    -9.2997    34.2236   231.5686 </r>
       <r>    -9.1954    38.3606   236.0000 </r>
       <r>    -9.0911     0.0000   236.0000 </r>
       <r>    -8.9869     0.0000   236.0000 </r>
       <r>    -8.8826     0.0000   236.0000 </r>
       <r>    -8.7783     0.0000   236.0000 </r>
       <r>    -8.6740    28.5927   238.9815 </r>
       <r>    -8.5698    10.8414   241.4138 </r>
       <r>    -8.4655    12.3224   245.2683 </r>
       <r>    -8.3612    50.9888   251.9668 </r>
       <r>    -8.2569     0.0000   252.0000 </r>
       <r>    -8.1527    25.0009   254.6069 </r>
       <r>    -8.0484    47.5307   260.0729 </r>
       <r>    -7.9441     0.0000   264.0000 </r>
       <r>    -7.8398    48.0350   269.0088 </r>
       <r>    -7.7356    15.2300   273.5881 </r>
       <r>    -7.6313    10.6383   276.1260 </r>
       <r>    -7.5270    30.4424   279.9743 </r>
       <r>    -7.4228    17.3546   281.8096 </r>
       <r>    -7.3185    11.5081   284.0000 </r>
       <r>    -7.2142     3.3707   284.3515 </r>
       <r>    -7.1099     5.8916   285.0310 </r>
       <r>    -7.0057    26.1938   287.9647 </r>
       <r>    -6.9014    29.8033   291.1077 </r>
       <r>    -6.7971    41.0773   296.0000 </r>
       <r>    -6.6928     4.7167   296.4918 </r>
       <r>    -6.5886    38.7879   304.1113 </r>
       <r>    -6.4843    13.1064   308.0000 </r>
       <r>    -6.3800     0.0000   308.0000 </r>
       <r>    -6.2757     0.0000   308.0000 </r>
       <r>    -6.1715     0.0000   308.0000 </r>
       <r>    -6.0672     0.0000   308.0000 </r>
       <r>    -5.9629     0.0000   308.0000 </r>
       <r>    -5.8586    27.3474   310.8516 </r>
       <r>    -5.7544    15.5035   316.0000 </r>
       <r>    -5.6501     0.0000   316.0000 </r>
       <r>    -5.5458    27.6036   318.8783 </r>
       <r>    -5.4416    80.3523   328.3787 </r>
       <r>    -5.3373    52.8291   336.1589 </r>
       <r>    -5.2330    32.6064   340.0000 </r>
       <r>    -5.1287     6.9034   340.7198 </r>
       <r>    -5.0245    56.1037   347.9835 </r>
       <r>    -4.9202     0.0000   348.0000 </r>
       <r>    -4.8159     0.0000   348.0000 </r>
       <r>    -4.7116     0.0000   348.0000 </r>
       <r>    -4.6074     0.0000   348.0000 </r>
       <r>    -4.5031     0.0000   348.0000 </r>
       <r>    -4.3988     0.0000   348.0000 </r>
       <r>    -4.2945     0.0000   348.0000 </r>
       <r>    -4.1903     0.0000   348.0000 </r>
       <r>    -4.0860     0.0000   348.0000 </r>
       <r>    -3.9817     0.0000   348.0000 </r>
       <r>    -3.8774     0.0000   348.0000 </r>
       <r>    -3.7732     0.0000   348.0000 </r>
       <r>    -3.6689     0.0000   348.0000 </r>
       <r>    -3.5646     0.0000   348.0000 </r>
       <r>    -3.4604     0.0000   348.0000 </r>
       <r>    -3.3561     0.0000   348.0000 </r>
       <r>    -3.2518     0.0000   348.0000 </r>
       <r>    -3.1475     3.6280   348.3783 </r>
       <r>    -3.0433    21.5317   352.4785 </r>
       <r>    -2.9390    11.3869   353.9540 </r>
       <r>    -2.8347    13.2663   356.0000 </r>
       <r>    -2.7304     0.0000   356.0000 </r>
       <r>    -2.6262     0.9135   356.0952 </r>
       <r>    -2.5219    23.9248   358.6614 </r>
       <r>    -2.4176     2.6559   359.0269 </r>
       <r>    -2.3133     3.4369   359.4584 </r>
       <r>    -2.2091     1.0541   359.6432 </r>
       <r>    -2.1048     1.2847   359.8173 </r>
       <r>    -2.0005     1.2787   360.0000 </r>
       <r>    -1.8963     0.0000   360.0000 </r>
       <r>    -1.7920     0.0000   360.0000 </r>
       <r>    -1.6877     3.9415   360.4110 </r>
       <r>    -1.5834    16.9957   364.1556 </r>
       <r>    -1.4792     2.0365   364.4457 </r>
       <r>    -1.3749    31.8289   367.9189 </r>
       <r>    -1.2706     0.0024   368.0002 </r>
       <r>    -1.1663    51.4764   373.7177 </r>
       <r>    -1.0621     4.1551   376.2499 </r>
       <r>    -0.9578     1.5331   376.4765 </r>
       <r>    -0.8535     3.6799   376.9337 </r>
       <r>    -0.7492     2.1376   377.2396 </r>
       <r>    -0.6450    22.5991   379.6732 </r>
       <r>    -0.5407     1.7433   379.9984 </r>
       <r>    -0.4364     0.0000   380.0000 </r>
       <r>    -0.3321     0.0000   380.0000 </r>
       <r>    -0.2279     0.7880   380.0822 </r>
       <r>    -0.1236    22.2021   382.4484 </r>
       <r>    -0.0193    28.9518   386.7856 </r>
       <r>     0.0849     1.8375   387.0583 </r>
       <r>     0.1892    26.0309   389.8310 </r>
       <r>     0.2935     5.4181   390.8650 </r>
       <r>     0.3978     7.9966   392.1172 </r>
       <r>     0.5020    55.7356   398.2451 </r>
       <r>     0.6063    18.7871   401.9590 </r>
       <r>     0.7106    18.2704   404.5718 </r>
       <r>     0.8149    30.8669   409.2519 </r>
       <r>     0.9191    18.8722   412.3512 </r>
       <r>     1.0234    33.4389   416.3201 </r>
       <r>     1.1277    36.0076   421.5880 </r>
       <r>     1.2320    55.7855   428.0170 </r>
       <r>     1.3362    38.6187   433.8936 </r>
       <r>     1.4405    34.1211   438.3080 </r>
       <r>     1.5448    25.2086   442.2119 </r>
       <r>     1.6491    24.7257   446.1783 </r>
       <r>     1.7533     5.1142   448.0000 </r>
       <r>     1.8576     0.0000   448.0000 </r>
       <r>     1.9619     0.0000   448.0000 </r>
       <r>     2.0661     0.0000   448.0000 </r>
       <r>     2.1704     0.0000   448.0000 </r>
       <r>     2.2747     0.0000   448.0000 </r>
       <r>     2.3790     0.0000   448.0000 </r>
       <r>     2.4832     0.0000   448.0000 </r>
       <r>     2.5875     0.0000   448.0000 </r>
       <r>     2.6918     0.0000   448.0000 </r>
       <r>     2.7961     0.0000   448.0000 </r>
       <r>     2.9003     0.0000   448.0000 </r>
       <r>     3.0046     0.0000   448.0000 </r>
       <r>     3.1089     0.0000   448.0000 </r>
      </set>
     </set>
    </array>
   </total>
  </dos>
 </calculation>
 <structure name="finalpos" >
  <crystal>
   <varray name="basis" >
    <v>      14.35064416       0.04437424       0.00000000 </v>
    <v>       0.08332361      24.76742246       0.00000000 </v>
    <v>       0.00000000       0.00000000      20.00000000 </v>
   </varray>
   <i name="volume">   7108.49537904 </i>
   <varray name="rec_basis" >
    <v>       0.06968401      -0.00023443       0.00000000 </v>
    <v>      -0.00012485       0.04037604       0.00000000 </v>
    <v>       0.00000000       0.00000000       0.05000000 </v>
   </varray>
  </crystal>
  <varray name="positions" >
   <v>       0.15386669       0.77378779       0.43772181 </v>
   <v>       0.65162768       0.27421347       0.43402220 </v>
   <v>       0.07661013       0.63636502       0.46018409 </v>
   <v>       0.98914863       0.71781324       0.44552311 </v>
   <v>       0.57439066       0.13695833       0.45816325 </v>
   <v>       0.48665509       0.21815923       0.44230348 </v>
   <v>       0.91152592       0.63306645       0.44727336 </v>
   <v>       0.41136725       0.85770614       0.46576316 </v>
   <v>       0.48679944       0.77443819       0.43888801 </v>
   <v>       0.57539975       0.85520237       0.44579434 </v>
   <v>       0.74365133       0.68636784       0.44179131 </v>
   <v>       0.07639063       0.52506391       0.47850094 </v>
   <v>       0.73464239       0.79773095       0.42674630 </v>
   <v>       0.41653379       0.96647566       0.44777607 </v>
   <v>       0.32252774       0.72370837       0.47004078 </v>
   <v>       0.40931059       0.13328656       0.44552403 </v>
   <v>       0.90992938       0.35748147       0.46402253 </v>
   <v>       0.98426926       0.27464359       0.43361878 </v>
   <v>       0.07402724       0.35470179       0.44460818 </v>
   <v>       0.24147121       0.18661614       0.44298722 </v>
   <v>       0.57539450       0.02596624       0.47735103 </v>
   <v>       0.23166366       0.29706067       0.41892287 </v>
   <v>       0.91658364       0.46647162       0.44881279 </v>
   <v>       0.82024390       0.22386722       0.46610884 </v>
   <v>       0.24542682       0.65350877       0.48355797 </v>
   <v>       0.74274865       0.15383353       0.47988417 </v>
   <v>       0.52415165       0.60912197       0.45097719 </v>
   <v>       0.63374282       0.60718843       0.40645975 </v>
   <v>       0.63349301       0.61486622       0.49525197 </v>
   <v>       0.71566381       0.00841280       0.56002646 </v>
   <v>       0.78669973       0.95158495       0.53435850 </v>
   <v>       0.75436367       0.00357701       0.47530147 </v>
   <v>       0.15777391       0.91823309       0.38797250 </v>
   <v>       0.11108903       0.85504314       0.35814123 </v>
   <v>       0.09463968       0.87404998       0.44349290 </v>
   <v>       0.87956336       0.79563992       0.42117403 </v>
   <v>       0.84982126       0.54087070       0.43747700 </v>
   <v>       0.02251863       0.11030884       0.46362988 </v>
   <v>       0.12964309       0.10608327       0.41634142 </v>
   <v>       0.13413919       0.11792224       0.50435476 </v>
   <v>       0.21771619       0.50662533       0.55992656 </v>
   <v>       0.28753697       0.44964826       0.53301976 </v>
   <v>       0.25437264       0.50205863       0.47474298 </v>
   <v>       0.65604514       0.41936932       0.38715317 </v>
   <v>       0.60789587       0.35697271       0.35596433 </v>
   <v>       0.59384753       0.37429181       0.44207235 </v>
   <v>       0.37635438       0.29444213       0.41026470 </v>
   <v>       0.34879150       0.04052613       0.43572616 </v>
   <v>       0.58408866       0.68212754       0.44144618 </v>
   <v>       0.65315056       0.94704582       0.50313736 </v>
   <v>       0.23191053       0.85298801       0.41757609 </v>
   <v>       0.08200960       0.18260631       0.44704644 </v>
   <v>       0.15323931       0.44574642       0.50336274 </v>
   <v>       0.73020055       0.35329740       0.41380128 </v>
   <v>       0.15777139       0.72123527       0.45405006 </v>
   <v>       0.24265274       0.69617074       0.47025532 </v>
   <v>       0.65538704       0.22168704       0.45053649 </v>
   <v>       0.74021606       0.19648429       0.46653248 </v>
   <v>       0.06929659       0.69033297       0.45329656 </v>
   <v>       0.56690668       0.19083201       0.45039203 </v>
   <v>       0.99561371       0.60981231       0.45622229 </v>
   <v>       0.91221272       0.68709635       0.44355965 </v>
   <v>       0.49527229       0.88120744       0.45840930 </v>
   <v>       0.41103404       0.80471248       0.45266880 </v>
   <v>       0.56768812       0.80119144       0.43931024 </v>
   <v>       0.65601330       0.76955658       0.43358639 </v>
   <v>       0.82138773       0.71581233       0.43713903 </v>
   <v>       0.66181675       0.71168537       0.43870831 </v>
   <v>       0.59547608       0.62445605       0.44904165 </v>
   <v>       0.49630638       0.94120347       0.46300060 </v>
   <v>       0.99644657       0.54997284       0.46159948 </v>
   <v>       0.57635103       0.97239531       0.48090757 </v>
   <v>       0.73235396       0.98027733       0.51921353 </v>
   <v>       0.32024793       0.77599143       0.45372666 </v>
   <v>       0.23312281       0.80114247       0.43678313 </v>
   <v>       0.14246733       0.87624319       0.40071815 </v>
   <v>       0.81648486       0.77185504       0.42744245 </v>
   <v>       0.91537425       0.52039730       0.44886857 </v>
   <v>       0.49356440       0.11023714       0.45453870 </v>
   <v>       0.40985949       0.18729655       0.44098941 </v>
   <v>       0.99412797       0.38082870       0.45756794 </v>
   <v>       0.90896007       0.30482290       0.44893911 </v>
   <v>       0.06551231       0.30099061       0.43582046 </v>
   <v>       0.15356089       0.26923077       0.42989226 </v>
   <v>       0.31889219       0.21575556       0.43420836 </v>
   <v>       0.15959335       0.21178986       0.43965105 </v>
   <v>       0.09369455       0.12539397       0.45861989 </v>
   <v>       0.99606361       0.44072615       0.46350466 </v>
   <v>       0.49511798       0.05041438       0.46025368 </v>
   <v>       0.07660333       0.47146960       0.48156038 </v>
   <v>       0.23317164       0.47861570       0.51874288 </v>
   <v>       0.81806923       0.27616582       0.44979169 </v>
   <v>       0.73104592       0.30141512       0.43293931 </v>
   <v>       0.64061904       0.37718117       0.39876522 </v>
   <v>       0.31355360       0.27115271       0.41995518 </v>
   <v>       0.41455677       0.02040327       0.44746911 </v>
  </varray>
 </structure>
</modeling>
