<?xml version="1.0" encoding="ISO-8859-1"?>
<modeling>
 <generator>
  <i name="program" type="string">vasp </i>
  <i name="version" type="string">5.4.4.18Apr17-6-g9f103f2a35  </i>
  <i name="subversion" type="string">(build Jun 07 2020 16:50:00) complex            parallel </i>
  <i name="platform" type="string">LinuxIFC </i>
  <i name="date" type="string">2023 02 14 </i>
  <i name="time" type="string">03:40:56 </i>
 </generator>
 <incar>
  <i type="string" name="SYSTEM">Simulation for cell shape cell volume r</i>
  <i type="int" name="ISTART">     1</i>
  <i type="string" name="PREC">high</i>
  <i type="string" name="ALGO">48</i>
  <i type="int" name="ICHARG">    11</i>
  <i type="int" name="NELM">   200</i>
  <i type="int" name="IBRION">    -1</i>
  <i name="EDIFF">      0.00001000</i>
  <i name="EDIFFG">     -0.01000000</i>
  <i type="int" name="NSW">     0</i>
  <i type="int" name="ISIF">     2</i>
  <i name="ENCUT">    500.00000000</i>
  <i name="POTIM">      0.30000000</i>
  <i type="string" name="LREAL">A</i>
  <i type="int" name="ISMEAR">     0</i>
  <i name="SIGMA">      0.01000000</i>
  <i type="int" name="NWRITE">     0</i>
  <i type="logical" name="LWAVE"> F  </i>
  <i type="logical" name="LCHARG"> F  </i>
  <v type="int" name="KPOINT_BSE">    -1     0     0     0</v>
  <i type="int" name="NELM">   200</i>
  <i type="string" name="GGA">PE</i>
 </incar>
 <structure name="primitive_cell" >
  <crystal>
   <varray name="basis" >
    <v>      14.33547051       0.00371256       0.00000000 </v>
    <v>      -7.16451982      12.41299063       0.00000000 </v>
    <v>      -0.00000000      -0.00000000      20.00000000 </v>
   </varray>
   <i name="volume">   3559.45319792 </i>
   <varray name="rec_basis" >
    <v>       0.06974662       0.04025629       0.00000000 </v>
    <v>      -0.00002086       0.08054872       0.00000000 </v>
    <v>       0.00000000       0.00000000       0.05000000 </v>
   </varray>
  </crystal>
  <varray name="positions" >
   <v>      -0.17599653       0.41663592       0.31167373 </v>
   <v>      -0.12892204       0.44017265       0.36223060 </v>
   <v>      -0.07577647       0.46674737       0.42575805 </v>
   <v>       0.03250492      -0.47909154       0.42653836 </v>
   <v>      -0.13599520       0.43662377       0.48575266 </v>
   <v>      -0.25676389       0.37624090       0.48514614 </v>
   <v>      -0.45364424       0.41664501       0.31168173 </v>
   <v>      -0.45365005       0.13897157       0.31166804 </v>
   <v>      -0.30568215       0.43509433       0.48492373 </v>
   <v>      -0.30566006       0.26848883       0.48492671 </v>
   <v>      -0.47730775       0.44038076       0.36213376 </v>
   <v>      -0.47734959       0.09164395       0.36213908 </v>
   <v>      -0.41343137       0.37629932       0.48506715 </v>
   <v>      -0.41341173       0.21953811       0.48507972 </v>
   <v>       0.07999177      -0.45530911       0.48617687 </v>
   <v>      -0.08852709       0.46035325      -0.45458626 </v>
   <v>      -0.47219551       0.26853754       0.48490128 </v>
   <v>       0.01978338      -0.48546133      -0.45380695 </v>
   <v>       0.49602491       0.46695541       0.42564269 </v>
   <v>       0.49600164       0.03840361       0.42564056 </v>
   <v>      -0.47385111       0.43673821       0.48560500 </v>
   <v>      -0.47382666       0.09869771       0.48561649 </v>
   <v>       0.20074729      -0.39486412       0.48661793 </v>
   <v>       0.24967103      -0.45370851       0.48675574 </v>
   <v>       0.24962008      -0.28710864       0.48673877 </v>
   <v>       0.07325826      -0.45869311      -0.39035876 </v>
   <v>       0.44181398      -0.47890856       0.42645959 </v>
   <v>       0.44178450      -0.06993473       0.42643640 </v>
   <v>      -0.49763113       0.46046003      -0.45474015 </v>
   <v>      -0.49755746       0.05117805      -0.45474101 </v>
   <v>       0.35740545      -0.39495355       0.48657918 </v>
   <v>       0.35735597      -0.23821279       0.48654691 </v>
   <v>       0.41792590      -0.45529117       0.48610431 </v>
   <v>       0.41792609      -0.11741868       0.48606640 </v>
   <v>       0.44810584      -0.48544380      -0.45391177 </v>
   <v>       0.44817361      -0.05715325      -0.45394148 </v>
   <v>       0.12110238      -0.43469392      -0.34006751 </v>
   <v>       0.41612306      -0.28721248       0.48669664 </v>
   <v>       0.42141404      -0.45883147      -0.39039893 </v>
   <v>       0.42146606      -0.11052676      -0.39046080 </v>
   <v>       0.39757900      -0.15818076      -0.34010066 </v>
   <v>       0.39761735      -0.43506352      -0.34000126 </v>
  </varray>
 </structure>
 <varray name="primitive_index" >
  <v type="int" >        1 </v>
  <v type="int" >       21 </v>
  <v type="int" >       20 </v>
  <v type="int" >       13 </v>
  <v type="int" >       19 </v>
  <v type="int" >       23 </v>
  <v type="int" >       12 </v>
  <v type="int" >       10 </v>
  <v type="int" >        3 </v>
  <v type="int" >        4 </v>
  <v type="int" >       35 </v>
  <v type="int" >       31 </v>
  <v type="int" >       22 </v>
  <v type="int" >       24 </v>
  <v type="int" >       36 </v>
  <v type="int" >        2 </v>
  <v type="int" >        5 </v>
  <v type="int" >       41 </v>
  <v type="int" >       34 </v>
  <v type="int" >       30 </v>
  <v type="int" >       32 </v>
  <v type="int" >       28 </v>
  <v type="int" >       26 </v>
  <v type="int" >        6 </v>
  <v type="int" >        7 </v>
  <v type="int" >       42 </v>
  <v type="int" >       11 </v>
  <v type="int" >        9 </v>
  <v type="int" >       16 </v>
  <v type="int" >       14 </v>
  <v type="int" >       25 </v>
  <v type="int" >       27 </v>
  <v type="int" >       33 </v>
  <v type="int" >       29 </v>
  <v type="int" >       39 </v>
  <v type="int" >       37 </v>
  <v type="int" >       18 </v>
  <v type="int" >        8 </v>
  <v type="int" >       40 </v>
  <v type="int" >       38 </v>
  <v type="int" >       15 </v>
  <v type="int" >       17 </v>
 </varray>
 <kpoints>
  <generation param="listgenerated">
   <i name="divisions" type="int">      20 </i>
   <v>       0.00000000       0.00000000       0.00000000 </v>
   <v>       0.50000000       0.00000000       0.00000000 </v>
   <v>       0.33333333       0.33333333       0.00000000 </v>
   <v>       0.00000000       0.00000000       0.00000000 </v>
  </generation>
  <varray name="kpointlist" >
   <v>       0.00000000       0.00000000       0.00000000 </v>
   <v>       0.02631579       0.00000000       0.00000000 </v>
   <v>       0.05263158       0.00000000       0.00000000 </v>
   <v>       0.07894737       0.00000000       0.00000000 </v>
   <v>       0.10526316       0.00000000       0.00000000 </v>
   <v>       0.13157895       0.00000000       0.00000000 </v>
   <v>       0.15789474       0.00000000       0.00000000 </v>
   <v>       0.18421053       0.00000000       0.00000000 </v>
   <v>       0.21052632       0.00000000       0.00000000 </v>
   <v>       0.23684211       0.00000000       0.00000000 </v>
   <v>       0.26315789       0.00000000       0.00000000 </v>
   <v>       0.28947368       0.00000000       0.00000000 </v>
   <v>       0.31578947       0.00000000       0.00000000 </v>
   <v>       0.34210526       0.00000000       0.00000000 </v>
   <v>       0.36842105       0.00000000       0.00000000 </v>
   <v>       0.39473684       0.00000000       0.00000000 </v>
   <v>       0.42105263       0.00000000       0.00000000 </v>
   <v>       0.44736842       0.00000000       0.00000000 </v>
   <v>       0.47368421       0.00000000       0.00000000 </v>
   <v>       0.50000000       0.00000000       0.00000000 </v>
   <v>       0.50000000       0.00000000       0.00000000 </v>
   <v>       0.49122807       0.01754386       0.00000000 </v>
   <v>       0.48245614       0.03508772       0.00000000 </v>
   <v>       0.47368421       0.05263158       0.00000000 </v>
   <v>       0.46491228       0.07017544       0.00000000 </v>
   <v>       0.45614035       0.08771930       0.00000000 </v>
   <v>       0.44736842       0.10526316       0.00000000 </v>
   <v>       0.43859649       0.12280702       0.00000000 </v>
   <v>       0.42982456       0.14035088       0.00000000 </v>
   <v>       0.42105263       0.15789474       0.00000000 </v>
   <v>       0.41228070       0.17543860       0.00000000 </v>
   <v>       0.40350877       0.19298246       0.00000000 </v>
   <v>       0.39473684       0.21052632       0.00000000 </v>
   <v>       0.38596491       0.22807018       0.00000000 </v>
   <v>       0.37719298       0.24561404       0.00000000 </v>
   <v>       0.36842105       0.26315789       0.00000000 </v>
   <v>       0.35964912       0.28070175       0.00000000 </v>
   <v>       0.35087719       0.29824561       0.00000000 </v>
   <v>       0.34210526       0.31578947       0.00000000 </v>
   <v>       0.33333333       0.33333333       0.00000000 </v>
   <v>       0.33333333       0.33333333       0.00000000 </v>
   <v>       0.31578947       0.31578947       0.00000000 </v>
   <v>       0.29824561       0.29824561       0.00000000 </v>
   <v>       0.28070175       0.28070175       0.00000000 </v>
   <v>       0.26315789       0.26315789       0.00000000 </v>
   <v>       0.24561404       0.24561404       0.00000000 </v>
   <v>       0.22807018       0.22807018       0.00000000 </v>
   <v>       0.21052632       0.21052632       0.00000000 </v>
   <v>       0.19298246       0.19298246       0.00000000 </v>
   <v>       0.17543860       0.17543860       0.00000000 </v>
   <v>       0.15789474       0.15789474       0.00000000 </v>
   <v>       0.14035088       0.14035088       0.00000000 </v>
   <v>       0.12280702       0.12280702       0.00000000 </v>
   <v>       0.10526316       0.10526316       0.00000000 </v>
   <v>       0.08771930       0.08771930       0.00000000 </v>
   <v>       0.07017544       0.07017544       0.00000000 </v>
   <v>       0.05263158       0.05263158       0.00000000 </v>
   <v>       0.03508772       0.03508772       0.00000000 </v>
   <v>       0.01754386       0.01754386       0.00000000 </v>
   <v>       0.00000000       0.00000000       0.00000000 </v>
  </varray>
  <varray name="weights" >
   <v>       0.01666667 </v>
   <v>       0.01666667 </v>
   <v>       0.01666667 </v>
   <v>       0.01666667 </v>
   <v>       0.01666667 </v>
   <v>       0.01666667 </v>
   <v>       0.01666667 </v>
   <v>       0.01666667 </v>
   <v>       0.01666667 </v>
   <v>       0.01666667 </v>
   <v>       0.01666667 </v>
   <v>       0.01666667 </v>
   <v>       0.01666667 </v>
   <v>       0.01666667 </v>
   <v>       0.01666667 </v>
   <v>       0.01666667 </v>
   <v>       0.01666667 </v>
   <v>       0.01666667 </v>
   <v>       0.01666667 </v>
   <v>       0.01666667 </v>
   <v>       0.01666667 </v>
   <v>       0.01666667 </v>
   <v>       0.01666667 </v>
   <v>       0.01666667 </v>
   <v>       0.01666667 </v>
   <v>       0.01666667 </v>
   <v>       0.01666667 </v>
   <v>       0.01666667 </v>
   <v>       0.01666667 </v>
   <v>       0.01666667 </v>
   <v>       0.01666667 </v>
   <v>       0.01666667 </v>
   <v>       0.01666667 </v>
   <v>       0.01666667 </v>
   <v>       0.01666667 </v>
   <v>       0.01666667 </v>
   <v>       0.01666667 </v>
   <v>       0.01666667 </v>
   <v>       0.01666667 </v>
   <v>       0.01666667 </v>
   <v>       0.01666667 </v>
   <v>       0.01666667 </v>
   <v>       0.01666667 </v>
   <v>       0.01666667 </v>
   <v>       0.01666667 </v>
   <v>       0.01666667 </v>
   <v>       0.01666667 </v>
   <v>       0.01666667 </v>
   <v>       0.01666667 </v>
   <v>       0.01666667 </v>
   <v>       0.01666667 </v>
   <v>       0.01666667 </v>
   <v>       0.01666667 </v>
   <v>       0.01666667 </v>
   <v>       0.01666667 </v>
   <v>       0.01666667 </v>
   <v>       0.01666667 </v>
   <v>       0.01666667 </v>
   <v>       0.01666667 </v>
   <v>       0.01666667 </v>
  </varray>
 </kpoints>
 <parameters>
  <separator name="general" >
   <i type="string" name="SYSTEM">Simulation for cell shape cell volume r</i>
   <i type="logical" name="LCOMPAT"> F  </i>
  </separator>
  <separator name="electronic" >
   <i type="string" name="PREC">high</i>
   <i name="ENMAX">    500.00000000</i>
   <i name="ENAUG">    644.87300000</i>
   <i name="EDIFF">      0.00001000</i>
   <i type="int" name="IALGO">    38</i>
   <i type="int" name="IWAVPR">    10</i>
   <i type="int" name="NBANDS">   128</i>
   <i name="NELECT">    186.00000000</i>
   <i type="int" name="TURBO">     0</i>
   <i type="int" name="IRESTART">     0</i>
   <i type="int" name="NREBOOT">     0</i>
   <i type="int" name="NMIN">     0</i>
   <i name="EREF">      0.00000000</i>
   <separator name="electronic smearing" >
    <i type="int" name="ISMEAR">     0</i>
    <i name="SIGMA">      0.01000000</i>
    <i name="KSPACING">      0.50000000</i>
    <i type="logical" name="KGAMMA"> T  </i>
   </separator>
   <separator name="electronic projectors" >
    <i type="logical" name="LREAL"> T  </i>
    <v name="ROPT">     -0.00040000     -0.00040000</v>
    <i type="int" name="LMAXPAW">  -100</i>
    <i type="int" name="LMAXMIX">     2</i>
    <i type="logical" name="NLSPLINE"> F  </i>
   </separator>
   <separator name="electronic startup" >
    <i type="int" name="ISTART">     1</i>
    <i type="int" name="ICHARG">    11</i>
    <i type="int" name="INIWAV">     1</i>
   </separator>
   <separator name="electronic spin" >
    <i type="int" name="ISPIN">     1</i>
    <i type="logical" name="LNONCOLLINEAR"> F  </i>
    <v name="MAGMOM">      1.00000000      1.00000000      1.00000000      1.00000000      1.00000000      1.00000000      1.00000000      1.00000000      1.00000000      1.00000000      1.00000000      1.00000000      1.00000000      1.00000000      1.00000000      1.00000000      1.00000000      1.00000000      1.00000000      1.00000000
      1.00000000      1.00000000      1.00000000      1.00000000      1.00000000      1.00000000      1.00000000      1.00000000      1.00000000      1.00000000      1.00000000      1.00000000      1.00000000      1.00000000      1.00000000      1.00000000      1.00000000      1.00000000      1.00000000      1.00000000
      1.00000000      1.00000000</v>
    <i name="NUPDOWN">     -1.00000000</i>
    <i type="logical" name="LSORBIT"> F  </i>
    <v name="SAXIS">      0.00000000      0.00000000      1.00000000</v>
    <i type="logical" name="LSPIRAL"> F  </i>
    <v name="QSPIRAL">      0.00000000      0.00000000      0.00000000</v>
    <i type="logical" name="LZEROZ"> F  </i>
   </separator>
   <separator name="electronic exchange-correlation" >
    <i type="logical" name="LASPH"> F  </i>
    <i type="logical" name="LMETAGGA"> F  </i>
   </separator>
   <separator name="electronic convergence" >
    <i type="int" name="NELM">   200</i>
    <i type="int" name="NELMDL">     0</i>
    <i type="int" name="NELMIN">     2</i>
    <i name="ENINI">    500.00000000</i>
    <separator name="electronic convergence detail" >
     <i type="logical" name="LDIAG"> T  </i>
     <i type="logical" name="LSUBROT"> F  </i>
     <i name="WEIMIN">      0.00000000</i>
     <i name="EBREAK">      0.00000002</i>
     <i name="DEPER">      0.30000000</i>
     <i type="int" name="NRMM">     4</i>
     <i name="TIME">      0.40000000</i>
    </separator>
   </separator>
   <separator name="electronic mixer" >
    <i name="AMIX">      0.40000000</i>
    <i name="BMIX">      1.00000000</i>
    <i name="AMIN">      0.10000000</i>
    <i name="AMIX_MAG">      1.60000000</i>
    <i name="BMIX_MAG">      1.00000000</i>
    <separator name="electronic mixer details" >
     <i type="int" name="IMIX">     4</i>
     <i type="logical" name="MIXFIRST"> F  </i>
     <i type="int" name="MAXMIX">   -45</i>
     <i name="WC">    100.00000000</i>
     <i type="int" name="INIMIX">     1</i>
     <i type="int" name="MIXPRE">     1</i>
     <i type="int" name="MREMOVE">     5</i>
    </separator>
   </separator>
   <separator name="electronic dipolcorrection" >
    <i type="logical" name="LDIPOL"> F  </i>
    <i type="logical" name="LMONO"> F  </i>
    <i type="int" name="IDIPOL">     0</i>
    <i name="EPSILON">      1.00000000</i>
    <v name="DIPOL">   -100.00000000   -100.00000000   -100.00000000</v>
    <i name="EFIELD">      0.00000000</i>
   </separator>
  </separator>
  <separator name="grids" >
   <i type="int" name="NGX">   108</i>
   <i type="int" name="NGY">   108</i>
   <i type="int" name="NGZ">   150</i>
   <i type="int" name="NGXF">   160</i>
   <i type="int" name="NGYF">   160</i>
   <i type="int" name="NGZF">   224</i>
   <i type="logical" name="ADDGRID"> F  </i>
  </separator>
  <separator name="ionic" >
   <i type="int" name="NSW">     0</i>
   <i type="int" name="IBRION">    -1</i>
   <i type="int" name="MDALGO">     0</i>
   <i type="int" name="ISIF">     2</i>
   <i name="PSTRESS">      0.00000000</i>
   <i name="EDIFFG">     -0.01000000</i>
   <i type="int" name="NFREE">     0</i>
   <i name="POTIM">      0.30000000</i>
   <i name="SMASS">     -3.00000000</i>
   <i name="SCALEE">      1.00000000</i>
  </separator>
  <separator name="ionic md" >
   <i name="TEBEG">      0.00010000</i>
   <i name="TEEND">      0.00010000</i>
   <i type="int" name="NBLOCK">     1</i>
   <i type="int" name="KBLOCK">     1</i>
   <i type="int" name="NPACO">   256</i>
   <i name="APACO">     16.00000000</i>
  </separator>
  <separator name="symmetry" >
   <i type="int" name="ISYM">     2</i>
   <i name="SYMPREC">      0.00001000</i>
  </separator>
  <separator name="dos" >
   <i type="int" name="LORBIT">     0</i>
   <v name="RWIGS">     -1.00000000     -1.00000000</v>
   <i type="int" name="NEDOS">   301</i>
   <i name="EMIN">     10.00000000</i>
   <i name="EMAX">    -10.00000000</i>
   <i name="EFERMI">      0.00000000</i>
  </separator>
  <separator name="writing" >
   <i type="int" name="NWRITE">     0</i>
   <i type="logical" name="LWAVE"> F  </i>
   <i type="logical" name="LDOWNSAMPLE"> F  </i>
   <i type="logical" name="LCHARG"> F  </i>
   <i type="logical" name="LPARD"> F  </i>
   <i type="logical" name="LVTOT"> F  </i>
   <i type="logical" name="LVHAR"> F  </i>
   <i type="logical" name="LELF"> F  </i>
   <i type="logical" name="LOPTICS"> F  </i>
   <v name="STM">      0.00000000      0.00000000      0.00000000      0.00000000      0.00000000      0.00000000      0.00000000</v>
  </separator>
  <separator name="performance" >
   <i type="int" name="NPAR">    16</i>
   <i type="int" name="NSIM">     4</i>
   <i type="int" name="NBLK">    -1</i>
   <i type="logical" name="LPLANE"> T  </i>
   <i type="logical" name="LSCALAPACK"> T  </i>
   <i type="logical" name="LSCAAWARE"> F  </i>
   <i type="logical" name="LSCALU"> F  </i>
   <i type="logical" name="LASYNC"> F  </i>
   <i type="logical" name="LORBITALREAL"> F  </i>
  </separator>
  <separator name="miscellaneous" >
   <i type="int" name="IDIOT">     3</i>
   <i type="int" name="ISPECIAL">     0</i>
   <i type="logical" name="LMUSIC"> F  </i>
   <v name="POMASS">     14.00100000     12.01100000</v>
   <v name="DARWINR">      0.00000000      0.00000000</v>
   <v name="DARWINV">      1.00000000      1.00000000</v>
   <i type="logical" name="LCORR"> T  </i>
  </separator>
  <i type="logical" name="GGA_COMPAT"> T  </i>
  <i type="logical" name="LBERRY"> F  </i>
  <i type="int" name="ICORELEVEL">     0</i>
  <i type="logical" name="LDAU"> F  </i>
  <i type="int" name="I_CONSTRAINED_M">     0</i>
  <separator name="electronic exchange-correlation" >
   <i type="string" name="GGA">PE</i>
   <i type="int" name="VOSKOWN">     0</i>
   <i type="logical" name="LHFCALC"> F  </i>
   <i type="string" name="PRECFOCK"></i>
   <i type="logical" name="LSYMGRAD"> F  </i>
   <i type="logical" name="LHFONE"> F  </i>
   <i type="logical" name="LRHFCALC"> F  </i>
   <i type="logical" name="LTHOMAS"> F  </i>
   <i type="logical" name="LMODELHF"> F  </i>
   <i name="ENCUT4O">     -1.00000000</i>
   <i type="int" name="EXXOEP">     0</i>
   <i type="int" name="FOURORBIT">     0</i>
   <i name="AEXX">      0.00000000</i>
   <i name="HFALPHA">      0.00000000</i>
   <i name="MCALPHA">      0.00000000</i>
   <i name="ALDAX">      1.00000000</i>
   <i name="AGGAX">      1.00000000</i>
   <i name="ALDAC">      1.00000000</i>
   <i name="AGGAC">      1.00000000</i>
   <i type="int" name="NKREDX">     1</i>
   <i type="int" name="NKREDY">     1</i>
   <i type="int" name="NKREDZ">     1</i>
   <i type="logical" name="SHIFTRED"> F  </i>
   <i type="logical" name="ODDONLY"> F  </i>
   <i type="logical" name="EVENONLY"> F  </i>
   <i type="int" name="LMAXFOCK">     0</i>
   <i type="int" name="NMAXFOCKAE">     0</i>
   <i type="logical" name="LFOCKAEDFT"> F  </i>
   <i name="HFSCREEN">      0.00000000</i>
   <i name="HFSCREENC">      0.00000000</i>
   <i type="int" name="NBANDSGWLOW">     0</i>
  </separator>
  <separator name="vdW DFT" >
   <i type="logical" name="LUSE_VDW"> F  </i>
   <i name="Zab_VDW">     -0.84910000</i>
   <i name="PARAM1">      0.12340000</i>
   <i name="PARAM2">      1.00000000</i>
   <i name="PARAM3">      0.00000000</i>
  </separator>
  <separator name="model GW" >
   <i type="int" name="MODEL_GW">     0</i>
   <i name="MODEL_EPS0">     50.84933140</i>
   <i name="MODEL_ALPHA">      1.00000000</i>
  </separator>
  <separator name="linear response parameters" >
   <i type="logical" name="LEPSILON"> F  </i>
   <i type="logical" name="LRPA"> F  </i>
   <i type="logical" name="LNABLA"> F  </i>
   <i type="logical" name="LVEL"> F  </i>
   <i type="int" name="KINTER">     0</i>
   <i name="CSHIFT">      0.10000000</i>
   <i name="OMEGAMAX">     -1.00000000</i>
   <i name="DEG_THRESHOLD">      0.00200000</i>
   <i name="RTIME">     -0.10000000</i>
   <i name="WPLASMAI">      0.00000000</i>
   <v name="DFIELD">      0.00000000      0.00000000      0.00000000</v>
   <v name="WPLASMA">      0.00000000      0.00000000      0.00000000      0.00000000      0.00000000      0.00000000      0.00000000      0.00000000      0.00000000</v>
  </separator>
  <separator name="orbital magnetization" >
   <i type="logical" name="NUCIND"> F  </i>
   <v name="MAGPOS">      0.00000000      0.00000000      0.00000000</v>
   <i type="logical" name="LNICSALL"> T  </i>
   <i type="logical" name="ORBITALMAG"> F  </i>
   <i type="logical" name="LMAGBLOCH"> F  </i>
   <i type="logical" name="LCHIMAG"> F  </i>
   <i type="logical" name="LGAUGE"> T  </i>
   <i type="int" name="MAGATOM">     0</i>
   <v name="MAGDIPOL">      0.00000000      0.00000000      0.00000000</v>
   <v name="AVECCONST">      0.00000000      0.00000000      0.00000000</v>
  </separator>
  <separator name="response functions" >
   <i type="logical" name="LADDER"> F  </i>
   <i type="logical" name="LRPAFORCE"> F  </i>
   <i type="logical" name="LFXC"> F  </i>
   <i type="logical" name="LHARTREE"> T  </i>
   <i type="int" name="IBSE">     0</i>
   <v type="int" name="KPOINT">    -1     0     0     0</v>
   <i type="logical" name="LTCTE"> F  </i>
   <i type="logical" name="LTETE"> F  </i>
   <i type="logical" name="LTRIPLET"> F  </i>
   <i type="logical" name="LFXCEPS"> F  </i>
   <i type="logical" name="LFXHEG"> F  </i>
   <i type="int" name="NATURALO">     2</i>
   <i type="logical" name="L2ORDER"> F  </i>
   <i type="logical" name="LMP2LT"> F  </i>
   <i type="logical" name="LUSEW"> F  </i>
   <i name="ENCUTGW">     -2.00000000</i>
   <i name="ENCUTGWSOFT">     -2.00000000</i>
   <i name="ENCUTLF">     -1.00000000</i>
   <i type="int" name="LMAXMP2">    -1</i>
   <i name="SCISSOR">      0.00000000</i>
   <i type="int" name="NOMEGA">     0</i>
   <i type="int" name="NOMEGAR">     0</i>
   <i type="int" name="NBANDSGW">    -1</i>
   <i type="int" name="NBANDSO">    -1</i>
   <i type="int" name="NBANDSV">    -1</i>
   <i type="int" name="NELM">   200</i>
   <i type="int" name="NELMHF">     1</i>
   <i type="int" name="DIM">     3</i>
   <i type="int" name="ANTIRES">     0</i>
   <i name="OMEGAMAX">    -30.00000000</i>
   <i name="OMEGAMIN">    -30.00000000</i>
   <i name="OMEGATL">   -200.00000000</i>
   <i type="int" name="OMEGAGRID">   140</i>
   <i name="CSHIFT">     -0.10000000</i>
   <i type="logical" name="SELFENERGY"> F  </i>
   <i type="logical" name="LSPECTRAL"> F  </i>
   <i type="logical" name="LSPECTRALGW"> F  </i>
   <i type="logical" name="LSINGLES"> F  </i>
   <i type="logical" name="LFERMIGW"> F  </i>
   <i type="logical" name="ODDONLYGW"> F  </i>
   <i type="logical" name="EVENONLYGW"> F  </i>
   <i type="int" name="NKREDLFX">     1</i>
   <i type="int" name="NKREDLFY">     1</i>
   <i type="int" name="NKREDLFZ">     1</i>
   <i type="int" name="MAXMEM">  2800</i>
   <i type="int" name="TELESCOPE">     0</i>
   <i type="int" name="TAUPAR">     1</i>
   <i type="int" name="OMEGAPAR">    -1</i>
   <i name="LAMBDA">      1.00000000</i>
  </separator>
  <separator name="External order field" >
   <i name="OFIELD_KAPPA">      0.00000000</i>
   <v name="OFIELD_K">      0.00000000      0.00000000      0.00000000</v>
   <i name="OFIELD_Q6_NEAR">      0.00000000</i>
   <i name="OFIELD_Q6_FAR">      0.00000000</i>
   <i name="OFIELD_A">      0.00000000</i>
  </separator>
  <separator name="solvation model" >
   <i type="logical" name="LSOL"> F  </i>
  </separator>
 </parameters>
 <atominfo>
  <atoms>      42 </atoms>
  <types>       2 </types>
  <array name="atoms" >
   <dimension dim="1">ion</dimension>
   <field type="string">element</field>
   <field type="int">atomtype</field>
   <set>
    <rc><c>N </c><c>   1</c></rc>
    <rc><c>N </c><c>   1</c></rc>
    <rc><c>N </c><c>   1</c></rc>
    <rc><c>N </c><c>   1</c></rc>
    <rc><c>N </c><c>   1</c></rc>
    <rc><c>N </c><c>   1</c></rc>
    <rc><c>N </c><c>   1</c></rc>
    <rc><c>N </c><c>   1</c></rc>
    <rc><c>N </c><c>   1</c></rc>
    <rc><c>N </c><c>   1</c></rc>
    <rc><c>N </c><c>   1</c></rc>
    <rc><c>N </c><c>   1</c></rc>
    <rc><c>N </c><c>   1</c></rc>
    <rc><c>N </c><c>   1</c></rc>
    <rc><c>N </c><c>   1</c></rc>
    <rc><c>N </c><c>   1</c></rc>
    <rc><c>N </c><c>   1</c></rc>
    <rc><c>N </c><c>   1</c></rc>
    <rc><c>C </c><c>   2</c></rc>
    <rc><c>C </c><c>   2</c></rc>
    <rc><c>C </c><c>   2</c></rc>
    <rc><c>C </c><c>   2</c></rc>
    <rc><c>C </c><c>   2</c></rc>
    <rc><c>C </c><c>   2</c></rc>
    <rc><c>C </c><c>   2</c></rc>
    <rc><c>C </c><c>   2</c></rc>
    <rc><c>C </c><c>   2</c></rc>
    <rc><c>C </c><c>   2</c></rc>
    <rc><c>C </c><c>   2</c></rc>
    <rc><c>C </c><c>   2</c></rc>
    <rc><c>C </c><c>   2</c></rc>
    <rc><c>C </c><c>   2</c></rc>
    <rc><c>C </c><c>   2</c></rc>
    <rc><c>C </c><c>   2</c></rc>
    <rc><c>C </c><c>   2</c></rc>
    <rc><c>C </c><c>   2</c></rc>
    <rc><c>C </c><c>   2</c></rc>
    <rc><c>C </c><c>   2</c></rc>
    <rc><c>C </c><c>   2</c></rc>
    <rc><c>C </c><c>   2</c></rc>
    <rc><c>C </c><c>   2</c></rc>
    <rc><c>C </c><c>   2</c></rc>
   </set>
  </array>
  <array name="atomtypes" >
   <dimension dim="1">type</dimension>
   <field type="int">atomspertype</field>
   <field type="string">element</field>
   <field>mass</field>
   <field>valence</field>
   <field type="string">pseudopotential</field>
   <set>
    <rc><c>  18</c><c>N </c><c>     14.00100000</c><c>      5.00000000</c><c>  PAW_PBE N 08Apr2002                   </c></rc>
    <rc><c>  24</c><c>C </c><c>     12.01100000</c><c>      4.00000000</c><c>  PAW_PBE C 08Apr2002                   </c></rc>
   </set>
  </array>
 </atominfo>
 <structure name="initialpos" >
  <crystal>
   <varray name="basis" >
    <v>      14.33547051       0.00371256       0.00000000 </v>
    <v>      -7.16451982      12.41299063       0.00000000 </v>
    <v>      -0.00000000      -0.00000000      20.00000000 </v>
   </varray>
   <i name="volume">   3559.45319792 </i>
   <varray name="rec_basis" >
    <v>       0.06974662       0.04025629       0.00000000 </v>
    <v>      -0.00002086       0.08054872       0.00000000 </v>
    <v>       0.00000000       0.00000000       0.05000000 </v>
   </varray>
  </crystal>
  <varray name="positions" >
   <v>       0.82400347       0.41663592       0.31167373 </v>
   <v>       0.91147291       0.46035325       0.54541374 </v>
   <v>       0.69431785       0.43509433       0.48492373 </v>
   <v>       0.69433994       0.26848883       0.48492671 </v>
   <v>       0.52780449       0.26853754       0.48490128 </v>
   <v>       0.24967103       0.54629149       0.48675574 </v>
   <v>       0.24962008       0.71289136       0.48673877 </v>
   <v>       0.41612306       0.71278752       0.48669664 </v>
   <v>       0.44178450       0.93006527       0.42643640 </v>
   <v>       0.54634995       0.13897157       0.31166804 </v>
   <v>       0.44181398       0.52109144       0.42645959 </v>
   <v>       0.54635576       0.41664501       0.31168173 </v>
   <v>       0.03250492       0.52090846       0.42653836 </v>
   <v>       0.50244254       0.05117805       0.54525899 </v>
   <v>       0.39757900       0.84181924       0.65989934 </v>
   <v>       0.50236887       0.46046003       0.54525985 </v>
   <v>       0.39761735       0.56493648       0.65999874 </v>
   <v>       0.12110238       0.56530608       0.65993249 </v>
   <v>       0.86400480       0.43662377       0.48575266 </v>
   <v>       0.92422353       0.46674737       0.42575805 </v>
   <v>       0.87107796       0.44017265       0.36223060 </v>
   <v>       0.58656863       0.37629932       0.48506715 </v>
   <v>       0.74323611       0.37624090       0.48514614 </v>
   <v>       0.58658827       0.21953811       0.48507972 </v>
   <v>       0.35740545       0.60504645       0.48657918 </v>
   <v>       0.20074729       0.60513588       0.48661793 </v>
   <v>       0.35735597       0.76178721       0.48654691 </v>
   <v>       0.52617334       0.09869771       0.48561649 </v>
   <v>       0.41792609       0.88258132       0.48606640 </v>
   <v>       0.49600164       0.03840361       0.42564056 </v>
   <v>       0.52265041       0.09164395       0.36213908 </v>
   <v>       0.52614889       0.43673821       0.48560500 </v>
   <v>       0.41792590       0.54470883       0.48610431 </v>
   <v>       0.49602491       0.46695541       0.42564269 </v>
   <v>       0.52269225       0.44038076       0.36213376 </v>
   <v>       0.07999177       0.54469089       0.48617687 </v>
   <v>       0.44817361       0.94284675       0.54605852 </v>
   <v>       0.42146606       0.88947324       0.60953920 </v>
   <v>       0.44810584       0.51455620       0.54608823 </v>
   <v>       0.42141404       0.54116853       0.60960107 </v>
   <v>       0.01978338       0.51453867       0.54619305 </v>
   <v>       0.07325826       0.54130689       0.60964124 </v>
  </varray>
 </structure>
 <calculation>
  <scstep>
   <time name="dav">   31.70   31.96</time>
   <time name="total">   31.78   32.05</time>
   <energy>
    <i name="alphaZ">     46.02460944 </i>
    <i name="ewald">  19358.69377404 </i>
    <i name="hartreedc"> -26057.29145418 </i>
    <i name="XCdc">    687.31806523 </i>
    <i name="pawpsdc">  19169.68224428 </i>
    <i name="pawaedc"> -19210.48273389 </i>
    <i name="eentropy">     -0.00000000 </i>
    <i name="bandstr">  -2638.52230423 </i>
    <i name="atom">   8293.18941045 </i>
    <i name="e_fr_energy">   -351.38838886 </i>
    <i name="e_wo_entrp">   -351.38838886 </i>
    <i name="e_0_energy">   -351.38838886 </i>
   </energy>
  </scstep>
  <scstep>
   <time name="dav">   32.96   33.22</time>
   <time name="total">   32.96   33.23</time>
   <energy>
    <i name="e_fr_energy">   -353.48441265 </i>
    <i name="e_wo_entrp">   -353.48441265 </i>
    <i name="e_0_energy">   -353.48441265 </i>
   </energy>
  </scstep>
  <scstep>
   <time name="dav">   37.54   37.83</time>
   <time name="total">   37.54   37.84</time>
   <energy>
    <i name="e_fr_energy">   -353.52733882 </i>
    <i name="e_wo_entrp">   -353.52733882 </i>
    <i name="e_0_energy">   -353.52733882 </i>
   </energy>
  </scstep>
  <scstep>
   <time name="dav">   34.66   34.93</time>
   <time name="total">   34.66   34.93</time>
   <energy>
    <i name="e_fr_energy">   -353.52834708 </i>
    <i name="e_wo_entrp">   -353.52834708 </i>
    <i name="e_0_energy">   -353.52834708 </i>
   </energy>
  </scstep>
  <scstep>
   <time name="dav">   34.96   35.23</time>
   <time name="total">   34.96   35.24</time>
   <energy>
    <i name="e_fr_energy">   -353.52837931 </i>
    <i name="e_wo_entrp">   -353.52837931 </i>
    <i name="e_0_energy">   -353.52837931 </i>
   </energy>
  </scstep>
  <scstep>
   <time name="dav">   28.17   28.40</time>
   <time name="total">   28.17   28.40</time>
   <energy>
    <i name="alphaZ">     46.02460944 </i>
    <i name="ewald">  19358.69377404 </i>
    <i name="hartreedc"> -26057.29145418 </i>
    <i name="XCdc">    687.31806523 </i>
    <i name="pawpsdc">  19169.68224428 </i>
    <i name="pawaedc"> -19210.48273389 </i>
    <i name="eentropy">     -0.00000000 </i>
    <i name="bandstr">  -2640.66229595 </i>
    <i name="atom">   8293.18941045 </i>
    <i name="e_fr_energy">   -353.52838058 </i>
    <i name="e_wo_entrp">   -353.52838058 </i>
    <i name="e_0_energy">   -353.52838058 </i>
   </energy>
  </scstep>
  <structure>
   <crystal>
    <varray name="basis" >
     <v>      14.33547051       0.00371256       0.00000000 </v>
     <v>      -7.16451982      12.41299063       0.00000000 </v>
     <v>      -0.00000000      -0.00000000      20.00000000 </v>
    </varray>
    <i name="volume">   3559.45319792 </i>
    <varray name="rec_basis" >
     <v>       0.06974662       0.04025629       0.00000000 </v>
     <v>      -0.00002086       0.08054872       0.00000000 </v>
     <v>       0.00000000       0.00000000       0.05000000 </v>
    </varray>
   </crystal>
   <varray name="positions" >
    <v>       0.82400347       0.41663592       0.31167373 </v>
    <v>       0.91147291       0.46035325       0.54541374 </v>
    <v>       0.69431785       0.43509433       0.48492373 </v>
    <v>       0.69433994       0.26848883       0.48492671 </v>
    <v>       0.52780449       0.26853754       0.48490128 </v>
    <v>       0.24967103       0.54629149       0.48675574 </v>
    <v>       0.24962008       0.71289136       0.48673877 </v>
    <v>       0.41612306       0.71278752       0.48669664 </v>
    <v>       0.44178450       0.93006527       0.42643640 </v>
    <v>       0.54634995       0.13897157       0.31166804 </v>
    <v>       0.44181398       0.52109144       0.42645959 </v>
    <v>       0.54635576       0.41664501       0.31168173 </v>
    <v>       0.03250492       0.52090846       0.42653836 </v>
    <v>       0.50244254       0.05117805       0.54525899 </v>
    <v>       0.39757900       0.84181924       0.65989934 </v>
    <v>       0.50236887       0.46046003       0.54525985 </v>
    <v>       0.39761735       0.56493648       0.65999874 </v>
    <v>       0.12110238       0.56530608       0.65993249 </v>
    <v>       0.86400480       0.43662377       0.48575266 </v>
    <v>       0.92422353       0.46674737       0.42575805 </v>
    <v>       0.87107796       0.44017265       0.36223060 </v>
    <v>       0.58656863       0.37629932       0.48506715 </v>
    <v>       0.74323611       0.37624090       0.48514614 </v>
    <v>       0.58658827       0.21953811       0.48507972 </v>
    <v>       0.35740545       0.60504645       0.48657918 </v>
    <v>       0.20074729       0.60513588       0.48661793 </v>
    <v>       0.35735597       0.76178721       0.48654691 </v>
    <v>       0.52617334       0.09869771       0.48561649 </v>
    <v>       0.41792609       0.88258132       0.48606640 </v>
    <v>       0.49600164       0.03840361       0.42564056 </v>
    <v>       0.52265041       0.09164395       0.36213908 </v>
    <v>       0.52614889       0.43673821       0.48560500 </v>
    <v>       0.41792590       0.54470883       0.48610431 </v>
    <v>       0.49602491       0.46695541       0.42564269 </v>
    <v>       0.52269225       0.44038076       0.36213376 </v>
    <v>       0.07999177       0.54469089       0.48617687 </v>
    <v>       0.44817361       0.94284675       0.54605852 </v>
    <v>       0.42146606       0.88947324       0.60953920 </v>
    <v>       0.44810584       0.51455620       0.54608823 </v>
    <v>       0.42141404       0.54116853       0.60960107 </v>
    <v>       0.01978338       0.51453867       0.54619305 </v>
    <v>       0.07325826       0.54130689       0.60964124 </v>
   </varray>
  </structure>
  <varray name="forces" >
   <v>      -0.00445983      -0.00309146      -0.00631761 </v>
   <v>       0.00226182       0.00076896      -0.00169045 </v>
   <v>      -0.00682881      -0.00265228       0.00099796 </v>
   <v>      -0.00257535      -0.00671132       0.00231650 </v>
   <v>       0.00446543       0.00541007      -0.00081063 </v>
   <v>      -0.00636403      -0.00301250       0.00233607 </v>
   <v>      -0.00736708       0.00350066       0.00299290 </v>
   <v>      -0.01053314       0.00301132       0.00323727 </v>
   <v>      -0.00099365       0.00692753      -0.00337490 </v>
   <v>      -0.00087361       0.00249517      -0.00471146 </v>
   <v>      -0.00309859       0.00056061       0.00282294 </v>
   <v>       0.00049198      -0.00010291      -0.00254520 </v>
   <v>      -0.00180148      -0.00147127       0.00117121 </v>
   <v>       0.00157865      -0.00394943       0.00065132 </v>
   <v>       0.00452714      -0.00111640       0.00249165 </v>
   <v>       0.00121201       0.00133440      -0.00248964 </v>
   <v>      -0.00052577      -0.00043080       0.00323117 </v>
   <v>      -0.00389016      -0.00199139       0.00157889 </v>
   <v>      -0.00404764      -0.00308126       0.00072505 </v>
   <v>       0.00513738       0.00093824       0.00088383 </v>
   <v>       0.00629789       0.00225042       0.00184384 </v>
   <v>       0.00596873      -0.00253710      -0.00127105 </v>
   <v>       0.00809011       0.00307450      -0.00104350 </v>
   <v>       0.00178378       0.00433560      -0.00193139 </v>
   <v>      -0.00194459       0.00439787      -0.00068478 </v>
   <v>      -0.00288680      -0.00310595       0.00013753 </v>
   <v>       0.00878366      -0.00526682       0.00262138 </v>
   <v>       0.00018983       0.00115353      -0.00109176 </v>
   <v>      -0.00126247      -0.00387263       0.00139932 </v>
   <v>       0.00363132      -0.00433702       0.00033843 </v>
   <v>       0.00303672      -0.00767692      -0.00050687 </v>
   <v>      -0.00256814       0.00037728       0.00443305 </v>
   <v>       0.00166959      -0.00055968      -0.00310985 </v>
   <v>       0.00214720      -0.00004995      -0.00074308 </v>
   <v>      -0.00288972       0.00126009      -0.00294136 </v>
   <v>       0.00266895       0.00224833      -0.00116829 </v>
   <v>      -0.00170250       0.00405906       0.00419244 </v>
   <v>       0.00044760       0.00639921      -0.00125913 </v>
   <v>      -0.00093276       0.00129764      -0.00025199 </v>
   <v>       0.00575735      -0.00217268      -0.00245893 </v>
   <v>       0.00024314       0.00212403      -0.00194502 </v>
   <v>      -0.00284414      -0.00073477       0.00194414 </v>
  </varray>
  <varray name="stress" >
   <v>      -0.00898883       0.01119587       0.00125161 </v>
   <v>       0.01119588      -0.00608421      -0.00824325 </v>
   <v>       0.00125159      -0.00824324      -0.33113332 </v>
  </varray>
  <energy>
   <i name="e_fr_energy">   -354.59641564 </i>
   <i name="e_wo_entrp">   -354.59641564 </i>
   <i name="e_0_energy">     -0.00000000 </i>
  </energy>
  <time name="totalsc">  224.62  226.46</time>
  <eigenvalues>
   <array>
    <dimension dim="1">band</dimension>
    <dimension dim="2">kpoint</dimension>
    <dimension dim="3">spin</dimension>
    <field>eigene</field>
    <field>occ</field>
    <set>
     <set comment="spin 1">
      <set comment="kpoint 1">
       <r>  -26.9078    1.0000 </r>
       <r>  -26.8297    1.0000 </r>
       <r>  -26.0740    1.0000 </r>
       <r>  -26.0735    1.0000 </r>
       <r>  -25.8755    1.0000 </r>
       <r>  -24.3169    1.0000 </r>
       <r>  -24.3159    1.0000 </r>
       <r>  -24.1213    1.0000 </r>
       <r>  -23.6828    1.0000 </r>
       <r>  -23.6824    1.0000 </r>
       <r>  -23.6495    1.0000 </r>
       <r>  -23.6492    1.0000 </r>
       <r>  -22.8794    1.0000 </r>
       <r>  -22.8295    1.0000 </r>
       <r>  -22.8289    1.0000 </r>
       <r>  -22.8216    1.0000 </r>
       <r>  -22.8147    1.0000 </r>
       <r>  -22.8144    1.0000 </r>
       <r>  -21.2560    1.0000 </r>
       <r>  -21.2545    1.0000 </r>
       <r>  -21.1588    1.0000 </r>
       <r>  -19.3751    1.0000 </r>
       <r>  -19.3728    1.0000 </r>
       <r>  -18.8149    1.0000 </r>
       <r>  -18.7936    1.0000 </r>
       <r>  -18.7929    1.0000 </r>
       <r>  -18.2966    1.0000 </r>
       <r>  -17.8604    1.0000 </r>
       <r>  -17.8567    1.0000 </r>
       <r>  -16.4389    1.0000 </r>
       <r>  -16.4375    1.0000 </r>
       <r>  -15.6270    1.0000 </r>
       <r>  -15.3894    1.0000 </r>
       <r>  -15.0044    1.0000 </r>
       <r>  -14.9544    1.0000 </r>
       <r>  -14.9124    1.0000 </r>
       <r>  -14.9120    1.0000 </r>
       <r>  -14.7904    1.0000 </r>
       <r>  -14.5109    1.0000 </r>
       <r>  -14.5102    1.0000 </r>
       <r>  -14.4526    1.0000 </r>
       <r>  -14.4516    1.0000 </r>
       <r>  -13.6993    1.0000 </r>
       <r>  -12.7657    1.0000 </r>
       <r>  -12.2235    1.0000 </r>
       <r>  -12.2223    1.0000 </r>
       <r>  -12.0293    1.0000 </r>
       <r>  -11.9143    1.0000 </r>
       <r>  -11.8481    1.0000 </r>
       <r>  -11.5465    1.0000 </r>
       <r>  -11.5446    1.0000 </r>
       <r>  -11.4199    1.0000 </r>
       <r>  -11.4180    1.0000 </r>
       <r>  -10.1649    1.0000 </r>
       <r>  -10.1646    1.0000 </r>
       <r>  -10.1352    1.0000 </r>
       <r>   -9.9823    1.0000 </r>
       <r>   -9.9587    1.0000 </r>
       <r>   -9.2933    1.0000 </r>
       <r>   -9.2926    1.0000 </r>
       <r>   -9.2269    1.0000 </r>
       <r>   -9.2268    1.0000 </r>
       <r>   -9.1477    1.0000 </r>
       <r>   -9.1463    1.0000 </r>
       <r>   -8.9625    1.0000 </r>
       <r>   -8.9180    1.0000 </r>
       <r>   -8.8633    1.0000 </r>
       <r>   -8.8283    1.0000 </r>
       <r>   -8.8280    1.0000 </r>
       <r>   -8.7589    1.0000 </r>
       <r>   -8.7546    1.0000 </r>
       <r>   -8.7281    1.0000 </r>
       <r>   -8.7275    1.0000 </r>
       <r>   -8.7161    1.0000 </r>
       <r>   -8.7159    1.0000 </r>
       <r>   -8.6560    1.0000 </r>
       <r>   -8.6556    1.0000 </r>
       <r>   -8.6486    1.0000 </r>
       <r>   -8.5534    1.0000 </r>
       <r>   -8.5530    1.0000 </r>
       <r>   -8.1527    1.0000 </r>
       <r>   -8.0805    1.0000 </r>
       <r>   -8.0799    1.0000 </r>
       <r>   -7.5910    1.0000 </r>
       <r>   -7.5906    1.0000 </r>
       <r>   -7.3528    1.0000 </r>
       <r>   -7.3375    1.0000 </r>
       <r>   -7.3363    1.0000 </r>
       <r>   -7.2626    1.0000 </r>
       <r>   -7.2592    1.0000 </r>
       <r>   -7.1145    1.0000 </r>
       <r>   -6.7705    1.0000 </r>
       <r>   -6.7692    1.0000 </r>
       <r>   -4.0851    0.0000 </r>
       <r>   -4.0848    0.0000 </r>
       <r>   -4.0027    0.0000 </r>
       <r>   -3.5375    0.0000 </r>
       <r>   -3.5348    0.0000 </r>
       <r>   -3.4442    0.0000 </r>
       <r>   -3.4430    0.0000 </r>
       <r>   -3.2321    0.0000 </r>
       <r>   -3.2300    0.0000 </r>
       <r>   -3.0768    0.0000 </r>
       <r>   -1.2243    0.0000 </r>
       <r>   -1.1447    0.0000 </r>
       <r>   -1.1442    0.0000 </r>
       <r>   -0.9235    0.0000 </r>
       <r>   -0.8668    0.0000 </r>
       <r>   -0.8662    0.0000 </r>
       <r>   -0.7659    0.0000 </r>
       <r>   -0.5775    0.0000 </r>
       <r>   -0.5772    0.0000 </r>
       <r>   -0.3273    0.0000 </r>
       <r>    0.3582    0.0000 </r>
       <r>    0.3873    0.0000 </r>
       <r>    0.5295    0.0000 </r>
       <r>    0.5299    0.0000 </r>
       <r>    0.6042    0.0000 </r>
       <r>    0.6747    0.0000 </r>
       <r>    0.6779    0.0000 </r>
       <r>    0.6982    0.0000 </r>
       <r>    0.6990    0.0000 </r>
       <r>    0.9989    0.0000 </r>
       <r>    0.9997    0.0000 </r>
       <r>    1.1847    0.0000 </r>
       <r>    1.2436    0.0000 </r>
       <r>    1.2876    0.0000 </r>
       <r>    1.2886    0.0000 </r>
      </set>
      <set comment="kpoint 2">
       <r>  -26.9077    1.0000 </r>
       <r>  -26.8299    1.0000 </r>
       <r>  -26.0738    1.0000 </r>
       <r>  -26.0734    1.0000 </r>
       <r>  -25.8758    1.0000 </r>
       <r>  -24.3166    1.0000 </r>
       <r>  -24.3159    1.0000 </r>
       <r>  -24.1215    1.0000 </r>
       <r>  -23.6828    1.0000 </r>
       <r>  -23.6824    1.0000 </r>
       <r>  -23.6495    1.0000 </r>
       <r>  -23.6493    1.0000 </r>
       <r>  -22.8793    1.0000 </r>
       <r>  -22.8296    1.0000 </r>
       <r>  -22.8290    1.0000 </r>
       <r>  -22.8216    1.0000 </r>
       <r>  -22.8147    1.0000 </r>
       <r>  -22.8144    1.0000 </r>
       <r>  -21.2560    1.0000 </r>
       <r>  -21.2544    1.0000 </r>
       <r>  -21.1590    1.0000 </r>
       <r>  -19.3750    1.0000 </r>
       <r>  -19.3719    1.0000 </r>
       <r>  -18.8149    1.0000 </r>
       <r>  -18.7936    1.0000 </r>
       <r>  -18.7930    1.0000 </r>
       <r>  -18.3021    1.0000 </r>
       <r>  -17.8603    1.0000 </r>
       <r>  -17.8508    1.0000 </r>
       <r>  -16.4396    1.0000 </r>
       <r>  -16.4387    1.0000 </r>
       <r>  -15.6263    1.0000 </r>
       <r>  -15.3896    1.0000 </r>
       <r>  -15.0044    1.0000 </r>
       <r>  -14.9544    1.0000 </r>
       <r>  -14.9124    1.0000 </r>
       <r>  -14.9117    1.0000 </r>
       <r>  -14.7903    1.0000 </r>
       <r>  -14.5111    1.0000 </r>
       <r>  -14.5102    1.0000 </r>
       <r>  -14.4527    1.0000 </r>
       <r>  -14.4525    1.0000 </r>
       <r>  -13.6973    1.0000 </r>
       <r>  -12.7670    1.0000 </r>
       <r>  -12.2229    1.0000 </r>
       <r>  -12.2219    1.0000 </r>
       <r>  -12.0292    1.0000 </r>
       <r>  -11.9147    1.0000 </r>
       <r>  -11.8487    1.0000 </r>
       <r>  -11.5479    1.0000 </r>
       <r>  -11.5451    1.0000 </r>
       <r>  -11.4186    1.0000 </r>
       <r>  -11.4172    1.0000 </r>
       <r>  -10.1649    1.0000 </r>
       <r>  -10.1646    1.0000 </r>
       <r>  -10.1353    1.0000 </r>
       <r>   -9.9823    1.0000 </r>
       <r>   -9.9587    1.0000 </r>
       <r>   -9.2933    1.0000 </r>
       <r>   -9.2928    1.0000 </r>
       <r>   -9.2269    1.0000 </r>
       <r>   -9.2266    1.0000 </r>
       <r>   -9.1477    1.0000 </r>
       <r>   -9.1460    1.0000 </r>
       <r>   -8.9627    1.0000 </r>
       <r>   -8.9179    1.0000 </r>
       <r>   -8.8633    1.0000 </r>
       <r>   -8.8282    1.0000 </r>
       <r>   -8.8279    1.0000 </r>
       <r>   -8.7590    1.0000 </r>
       <r>   -8.7548    1.0000 </r>
       <r>   -8.7281    1.0000 </r>
       <r>   -8.7273    1.0000 </r>
       <r>   -8.7162    1.0000 </r>
       <r>   -8.7159    1.0000 </r>
       <r>   -8.6560    1.0000 </r>
       <r>   -8.6559    1.0000 </r>
       <r>   -8.6483    1.0000 </r>
       <r>   -8.5534    1.0000 </r>
       <r>   -8.5532    1.0000 </r>
       <r>   -8.1526    1.0000 </r>
       <r>   -8.0805    1.0000 </r>
       <r>   -8.0799    1.0000 </r>
       <r>   -7.5908    1.0000 </r>
       <r>   -7.5904    1.0000 </r>
       <r>   -7.3533    1.0000 </r>
       <r>   -7.3382    1.0000 </r>
       <r>   -7.3368    1.0000 </r>
       <r>   -7.2618    1.0000 </r>
       <r>   -7.2599    1.0000 </r>
       <r>   -7.1131    1.0000 </r>
       <r>   -6.7705    1.0000 </r>
       <r>   -6.7696    1.0000 </r>
       <r>   -4.0852    0.0000 </r>
       <r>   -4.0848    0.0000 </r>
       <r>   -4.0029    0.0000 </r>
       <r>   -3.5371    0.0000 </r>
       <r>   -3.5343    0.0000 </r>
       <r>   -3.4440    0.0000 </r>
       <r>   -3.4426    0.0000 </r>
       <r>   -3.2324    0.0000 </r>
       <r>   -3.2304    0.0000 </r>
       <r>   -3.0774    0.0000 </r>
       <r>   -1.2238    0.0000 </r>
       <r>   -1.1446    0.0000 </r>
       <r>   -1.1438    0.0000 </r>
       <r>   -0.9238    0.0000 </r>
       <r>   -0.8675    0.0000 </r>
       <r>   -0.8666    0.0000 </r>
       <r>   -0.7650    0.0000 </r>
       <r>   -0.5776    0.0000 </r>
       <r>   -0.5773    0.0000 </r>
       <r>   -0.3266    0.0000 </r>
       <r>    0.3584    0.0000 </r>
       <r>    0.3876    0.0000 </r>
       <r>    0.5179    0.0000 </r>
       <r>    0.5272    0.0000 </r>
       <r>    0.6099    0.0000 </r>
       <r>    0.6734    0.0000 </r>
       <r>    0.6785    0.0000 </r>
       <r>    0.7026    0.0000 </r>
       <r>    0.7055    0.0000 </r>
       <r>    0.9987    0.0000 </r>
       <r>    1.0003    0.0000 </r>
       <r>    1.1844    0.0000 </r>
       <r>    1.2436    0.0000 </r>
       <r>    1.2828    0.0000 </r>
       <r>    1.2870    0.0000 </r>
      </set>
      <set comment="kpoint 3">
       <r>  -26.9074    1.0000 </r>
       <r>  -26.8303    1.0000 </r>
       <r>  -26.0736    1.0000 </r>
       <r>  -26.0727    1.0000 </r>
       <r>  -25.8768    1.0000 </r>
       <r>  -24.3160    1.0000 </r>
       <r>  -24.3155    1.0000 </r>
       <r>  -24.1223    1.0000 </r>
       <r>  -23.6827    1.0000 </r>
       <r>  -23.6824    1.0000 </r>
       <r>  -23.6496    1.0000 </r>
       <r>  -23.6495    1.0000 </r>
       <r>  -22.8791    1.0000 </r>
       <r>  -22.8296    1.0000 </r>
       <r>  -22.8292    1.0000 </r>
       <r>  -22.8215    1.0000 </r>
       <r>  -22.8147    1.0000 </r>
       <r>  -22.8144    1.0000 </r>
       <r>  -21.2560    1.0000 </r>
       <r>  -21.2541    1.0000 </r>
       <r>  -21.1596    1.0000 </r>
       <r>  -19.3750    1.0000 </r>
       <r>  -19.3690    1.0000 </r>
       <r>  -18.8150    1.0000 </r>
       <r>  -18.7936    1.0000 </r>
       <r>  -18.7930    1.0000 </r>
       <r>  -18.3179    1.0000 </r>
       <r>  -17.8603    1.0000 </r>
       <r>  -17.8339    1.0000 </r>
       <r>  -16.4454    1.0000 </r>
       <r>  -16.4389    1.0000 </r>
       <r>  -15.6241    1.0000 </r>
       <r>  -15.3903    1.0000 </r>
       <r>  -15.0041    1.0000 </r>
       <r>  -14.9547    1.0000 </r>
       <r>  -14.9124    1.0000 </r>
       <r>  -14.9110    1.0000 </r>
       <r>  -14.7903    1.0000 </r>
       <r>  -14.5117    1.0000 </r>
       <r>  -14.5102    1.0000 </r>
       <r>  -14.4551    1.0000 </r>
       <r>  -14.4527    1.0000 </r>
       <r>  -13.6915    1.0000 </r>
       <r>  -12.7708    1.0000 </r>
       <r>  -12.2213    1.0000 </r>
       <r>  -12.2207    1.0000 </r>
       <r>  -12.0290    1.0000 </r>
       <r>  -11.9159    1.0000 </r>
       <r>  -11.8503    1.0000 </r>
       <r>  -11.5519    1.0000 </r>
       <r>  -11.5466    1.0000 </r>
       <r>  -11.4152    1.0000 </r>
       <r>  -11.4146    1.0000 </r>
       <r>  -10.1648    1.0000 </r>
       <r>  -10.1646    1.0000 </r>
       <r>  -10.1354    1.0000 </r>
       <r>   -9.9823    1.0000 </r>
       <r>   -9.9589    1.0000 </r>
       <r>   -9.2936    1.0000 </r>
       <r>   -9.2930    1.0000 </r>
       <r>   -9.2270    1.0000 </r>
       <r>   -9.2260    1.0000 </r>
       <r>   -9.1475    1.0000 </r>
       <r>   -9.1451    1.0000 </r>
       <r>   -8.9635    1.0000 </r>
       <r>   -8.9175    1.0000 </r>
       <r>   -8.8632    1.0000 </r>
       <r>   -8.8281    1.0000 </r>
       <r>   -8.8275    1.0000 </r>
       <r>   -8.7594    1.0000 </r>
       <r>   -8.7552    1.0000 </r>
       <r>   -8.7279    1.0000 </r>
       <r>   -8.7267    1.0000 </r>
       <r>   -8.7165    1.0000 </r>
       <r>   -8.7160    1.0000 </r>
       <r>   -8.6568    1.0000 </r>
       <r>   -8.6561    1.0000 </r>
       <r>   -8.6474    1.0000 </r>
       <r>   -8.5537    1.0000 </r>
       <r>   -8.5533    1.0000 </r>
       <r>   -8.1522    1.0000 </r>
       <r>   -8.0808    1.0000 </r>
       <r>   -8.0799    1.0000 </r>
       <r>   -7.5901    1.0000 </r>
       <r>   -7.5898    1.0000 </r>
       <r>   -7.3547    1.0000 </r>
       <r>   -7.3401    1.0000 </r>
       <r>   -7.3386    1.0000 </r>
       <r>   -7.2620    1.0000 </r>
       <r>   -7.2593    1.0000 </r>
       <r>   -7.1091    1.0000 </r>
       <r>   -6.7709    1.0000 </r>
       <r>   -6.7703    1.0000 </r>
       <r>   -4.0855    0.0000 </r>
       <r>   -4.0846    0.0000 </r>
       <r>   -4.0034    0.0000 </r>
       <r>   -3.5361    0.0000 </r>
       <r>   -3.5330    0.0000 </r>
       <r>   -3.4436    0.0000 </r>
       <r>   -3.4412    0.0000 </r>
       <r>   -3.2332    0.0000 </r>
       <r>   -3.2318    0.0000 </r>
       <r>   -3.0791    0.0000 </r>
       <r>   -1.2224    0.0000 </r>
       <r>   -1.1446    0.0000 </r>
       <r>   -1.1428    0.0000 </r>
       <r>   -0.9247    0.0000 </r>
       <r>   -0.8707    0.0000 </r>
       <r>   -0.8666    0.0000 </r>
       <r>   -0.7625    0.0000 </r>
       <r>   -0.5781    0.0000 </r>
       <r>   -0.5774    0.0000 </r>
       <r>   -0.3245    0.0000 </r>
       <r>    0.3588    0.0000 </r>
       <r>    0.3884    0.0000 </r>
       <r>    0.4922    0.0000 </r>
       <r>    0.5198    0.0000 </r>
       <r>    0.6179    0.0000 </r>
       <r>    0.6664    0.0000 </r>
       <r>    0.6876    0.0000 </r>
       <r>    0.7129    0.0000 </r>
       <r>    0.7225    0.0000 </r>
       <r>    0.9980    0.0000 </r>
       <r>    1.0017    0.0000 </r>
       <r>    1.1828    0.0000 </r>
       <r>    1.2411    0.0000 </r>
       <r>    1.2713    0.0000 </r>
       <r>    1.2820    0.0000 </r>
      </set>
      <set comment="kpoint 4">
       <r>  -26.9069    1.0000 </r>
       <r>  -26.8310    1.0000 </r>
       <r>  -26.0736    1.0000 </r>
       <r>  -26.0712    1.0000 </r>
       <r>  -25.8783    1.0000 </r>
       <r>  -24.3160    1.0000 </r>
       <r>  -24.3139    1.0000 </r>
       <r>  -24.1237    1.0000 </r>
       <r>  -23.6826    1.0000 </r>
       <r>  -23.6823    1.0000 </r>
       <r>  -23.6499    1.0000 </r>
       <r>  -23.6495    1.0000 </r>
       <r>  -22.8786    1.0000 </r>
       <r>  -22.8296    1.0000 </r>
       <r>  -22.8295    1.0000 </r>
       <r>  -22.8214    1.0000 </r>
       <r>  -22.8147    1.0000 </r>
       <r>  -22.8144    1.0000 </r>
       <r>  -21.2560    1.0000 </r>
       <r>  -21.2535    1.0000 </r>
       <r>  -21.1604    1.0000 </r>
       <r>  -19.3750    1.0000 </r>
       <r>  -19.3641    1.0000 </r>
       <r>  -18.8151    1.0000 </r>
       <r>  -18.7937    1.0000 </r>
       <r>  -18.7930    1.0000 </r>
       <r>  -18.3418    1.0000 </r>
       <r>  -17.8602    1.0000 </r>
       <r>  -17.8080    1.0000 </r>
       <r>  -16.4550    1.0000 </r>
       <r>  -16.4389    1.0000 </r>
       <r>  -15.6205    1.0000 </r>
       <r>  -15.3914    1.0000 </r>
       <r>  -15.0038    1.0000 </r>
       <r>  -14.9551    1.0000 </r>
       <r>  -14.9124    1.0000 </r>
       <r>  -14.9097    1.0000 </r>
       <r>  -14.7902    1.0000 </r>
       <r>  -14.5126    1.0000 </r>
       <r>  -14.5102    1.0000 </r>
       <r>  -14.4593    1.0000 </r>
       <r>  -14.4529    1.0000 </r>
       <r>  -13.6820    1.0000 </r>
       <r>  -12.7771    1.0000 </r>
       <r>  -12.2194    1.0000 </r>
       <r>  -12.2178    1.0000 </r>
       <r>  -12.0287    1.0000 </r>
       <r>  -11.9180    1.0000 </r>
       <r>  -11.8530    1.0000 </r>
       <r>  -11.5579    1.0000 </r>
       <r>  -11.5489    1.0000 </r>
       <r>  -11.4115    1.0000 </r>
       <r>  -11.4091    1.0000 </r>
       <r>  -10.1646    1.0000 </r>
       <r>  -10.1645    1.0000 </r>
       <r>  -10.1356    1.0000 </r>
       <r>   -9.9821    1.0000 </r>
       <r>   -9.9591    1.0000 </r>
       <r>   -9.2944    1.0000 </r>
       <r>   -9.2932    1.0000 </r>
       <r>   -9.2271    1.0000 </r>
       <r>   -9.2250    1.0000 </r>
       <r>   -9.1472    1.0000 </r>
       <r>   -9.1435    1.0000 </r>
       <r>   -8.9648    1.0000 </r>
       <r>   -8.9168    1.0000 </r>
       <r>   -8.8632    1.0000 </r>
       <r>   -8.8279    1.0000 </r>
       <r>   -8.8270    1.0000 </r>
       <r>   -8.7600    1.0000 </r>
       <r>   -8.7558    1.0000 </r>
       <r>   -8.7277    1.0000 </r>
       <r>   -8.7259    1.0000 </r>
       <r>   -8.7168    1.0000 </r>
       <r>   -8.7160    1.0000 </r>
       <r>   -8.6579    1.0000 </r>
       <r>   -8.6563    1.0000 </r>
       <r>   -8.6461    1.0000 </r>
       <r>   -8.5545    1.0000 </r>
       <r>   -8.5533    1.0000 </r>
       <r>   -8.1515    1.0000 </r>
       <r>   -8.0813    1.0000 </r>
       <r>   -8.0799    1.0000 </r>
       <r>   -7.5889    1.0000 </r>
       <r>   -7.5887    1.0000 </r>
       <r>   -7.3576    1.0000 </r>
       <r>   -7.3422    1.0000 </r>
       <r>   -7.3414    1.0000 </r>
       <r>   -7.2648    1.0000 </r>
       <r>   -7.2559    1.0000 </r>
       <r>   -7.1029    1.0000 </r>
       <r>   -6.7725    1.0000 </r>
       <r>   -6.7704    1.0000 </r>
       <r>   -4.0859    0.0000 </r>
       <r>   -4.0844    0.0000 </r>
       <r>   -4.0044    0.0000 </r>
       <r>   -3.5344    0.0000 </r>
       <r>   -3.5307    0.0000 </r>
       <r>   -3.4433    0.0000 </r>
       <r>   -3.4387    0.0000 </r>
       <r>   -3.2348    0.0000 </r>
       <r>   -3.2338    0.0000 </r>
       <r>   -3.0818    0.0000 </r>
       <r>   -1.2200    0.0000 </r>
       <r>   -1.1447    0.0000 </r>
       <r>   -1.1409    0.0000 </r>
       <r>   -0.9262    0.0000 </r>
       <r>   -0.8757    0.0000 </r>
       <r>   -0.8666    0.0000 </r>
       <r>   -0.7586    0.0000 </r>
       <r>   -0.5791    0.0000 </r>
       <r>   -0.5773    0.0000 </r>
       <r>   -0.3211    0.0000 </r>
       <r>    0.3587    0.0000 </r>
       <r>    0.3898    0.0000 </r>
       <r>    0.4622    0.0000 </r>
       <r>    0.5092    0.0000 </r>
       <r>    0.6215    0.0000 </r>
       <r>    0.6599    0.0000 </r>
       <r>    0.6990    0.0000 </r>
       <r>    0.7284    0.0000 </r>
       <r>    0.7470    0.0000 </r>
       <r>    0.9969    0.0000 </r>
       <r>    1.0042    0.0000 </r>
       <r>    1.1802    0.0000 </r>
       <r>    1.2285    0.0000 </r>
       <r>    1.2697    0.0000 </r>
       <r>    1.2754    0.0000 </r>
      </set>
      <set comment="kpoint 5">
       <r>  -26.9062    1.0000 </r>
       <r>  -26.8320    1.0000 </r>
       <r>  -26.0736    1.0000 </r>
       <r>  -26.0691    1.0000 </r>
       <r>  -25.8804    1.0000 </r>
       <r>  -24.3160    1.0000 </r>
       <r>  -24.3117    1.0000 </r>
       <r>  -24.1255    1.0000 </r>
       <r>  -23.6825    1.0000 </r>
       <r>  -23.6822    1.0000 </r>
       <r>  -23.6504    1.0000 </r>
       <r>  -23.6495    1.0000 </r>
       <r>  -22.8780    1.0000 </r>
       <r>  -22.8300    1.0000 </r>
       <r>  -22.8295    1.0000 </r>
       <r>  -22.8213    1.0000 </r>
       <r>  -22.8147    1.0000 </r>
       <r>  -22.8145    1.0000 </r>
       <r>  -21.2560    1.0000 </r>
       <r>  -21.2527    1.0000 </r>
       <r>  -21.1617    1.0000 </r>
       <r>  -19.3750    1.0000 </r>
       <r>  -19.3573    1.0000 </r>
       <r>  -18.8152    1.0000 </r>
       <r>  -18.7937    1.0000 </r>
       <r>  -18.7930    1.0000 </r>
       <r>  -18.3715    1.0000 </r>
       <r>  -17.8601    1.0000 </r>
       <r>  -17.7755    1.0000 </r>
       <r>  -16.4682    1.0000 </r>
       <r>  -16.4390    1.0000 </r>
       <r>  -15.6157    1.0000 </r>
       <r>  -15.3929    1.0000 </r>
       <r>  -15.0033    1.0000 </r>
       <r>  -14.9556    1.0000 </r>
       <r>  -14.9123    1.0000 </r>
       <r>  -14.9079    1.0000 </r>
       <r>  -14.7900    1.0000 </r>
       <r>  -14.5139    1.0000 </r>
       <r>  -14.5102    1.0000 </r>
       <r>  -14.4649    1.0000 </r>
       <r>  -14.4530    1.0000 </r>
       <r>  -13.6690    1.0000 </r>
       <r>  -12.7859    1.0000 </r>
       <r>  -12.2169    1.0000 </r>
       <r>  -12.2136    1.0000 </r>
       <r>  -12.0284    1.0000 </r>
       <r>  -11.9207    1.0000 </r>
       <r>  -11.8569    1.0000 </r>
       <r>  -11.5654    1.0000 </r>
       <r>  -11.5518    1.0000 </r>
       <r>  -11.4069    1.0000 </r>
       <r>  -11.4021    1.0000 </r>
       <r>  -10.1645    1.0000 </r>
       <r>  -10.1642    1.0000 </r>
       <r>  -10.1359    1.0000 </r>
       <r>   -9.9820    1.0000 </r>
       <r>   -9.9595    1.0000 </r>
       <r>   -9.2955    1.0000 </r>
       <r>   -9.2933    1.0000 </r>
       <r>   -9.2272    1.0000 </r>
       <r>   -9.2237    1.0000 </r>
       <r>   -9.1468    1.0000 </r>
       <r>   -9.1413    1.0000 </r>
       <r>   -8.9666    1.0000 </r>
       <r>   -8.9158    1.0000 </r>
       <r>   -8.8632    1.0000 </r>
       <r>   -8.8277    1.0000 </r>
       <r>   -8.8263    1.0000 </r>
       <r>   -8.7609    1.0000 </r>
       <r>   -8.7566    1.0000 </r>
       <r>   -8.7274    1.0000 </r>
       <r>   -8.7249    1.0000 </r>
       <r>   -8.7173    1.0000 </r>
       <r>   -8.7161    1.0000 </r>
       <r>   -8.6592    1.0000 </r>
       <r>   -8.6566    1.0000 </r>
       <r>   -8.6446    1.0000 </r>
       <r>   -8.5556    1.0000 </r>
       <r>   -8.5533    1.0000 </r>
       <r>   -8.1506    1.0000 </r>
       <r>   -8.0819    1.0000 </r>
       <r>   -8.0799    1.0000 </r>
       <r>   -7.5875    1.0000 </r>
       <r>   -7.5870    1.0000 </r>
       <r>   -7.3623    1.0000 </r>
       <r>   -7.3457    1.0000 </r>
       <r>   -7.3438    1.0000 </r>
       <r>   -7.2680    1.0000 </r>
       <r>   -7.2517    1.0000 </r>
       <r>   -7.0948    1.0000 </r>
       <r>   -6.7749    1.0000 </r>
       <r>   -6.7705    1.0000 </r>
       <r>   -4.0865    0.0000 </r>
       <r>   -4.0841    0.0000 </r>
       <r>   -4.0056    0.0000 </r>
       <r>   -3.5321    0.0000 </r>
       <r>   -3.5276    0.0000 </r>
       <r>   -3.4430    0.0000 </r>
       <r>   -3.4351    0.0000 </r>
       <r>   -3.2378    0.0000 </r>
       <r>   -3.2358    0.0000 </r>
       <r>   -3.0856    0.0000 </r>
       <r>   -1.2166    0.0000 </r>
       <r>   -1.1448    0.0000 </r>
       <r>   -1.1384    0.0000 </r>
       <r>   -0.9283    0.0000 </r>
       <r>   -0.8822    0.0000 </r>
       <r>   -0.8666    0.0000 </r>
       <r>   -0.7537    0.0000 </r>
       <r>   -0.5805    0.0000 </r>
       <r>   -0.5771    0.0000 </r>
       <r>   -0.3163    0.0000 </r>
       <r>    0.3565    0.0000 </r>
       <r>    0.3916    0.0000 </r>
       <r>    0.4333    0.0000 </r>
       <r>    0.4966    0.0000 </r>
       <r>    0.6211    0.0000 </r>
       <r>    0.6546    0.0000 </r>
       <r>    0.7103    0.0000 </r>
       <r>    0.7475    0.0000 </r>
       <r>    0.7765    0.0000 </r>
       <r>    0.9951    0.0000 </r>
       <r>    1.0078    0.0000 </r>
       <r>    1.1763    0.0000 </r>
       <r>    1.2040    0.0000 </r>
       <r>    1.2662    0.0000 </r>
       <r>    1.2776    0.0000 </r>
      </set>
      <set comment="kpoint 6">
       <r>  -26.9053    1.0000 </r>
       <r>  -26.8332    1.0000 </r>
       <r>  -26.0736    1.0000 </r>
       <r>  -26.0665    1.0000 </r>
       <r>  -25.8831    1.0000 </r>
       <r>  -24.3160    1.0000 </r>
       <r>  -24.3089    1.0000 </r>
       <r>  -24.1279    1.0000 </r>
       <r>  -23.6824    1.0000 </r>
       <r>  -23.6819    1.0000 </r>
       <r>  -23.6510    1.0000 </r>
       <r>  -23.6495    1.0000 </r>
       <r>  -22.8773    1.0000 </r>
       <r>  -22.8307    1.0000 </r>
       <r>  -22.8295    1.0000 </r>
       <r>  -22.8212    1.0000 </r>
       <r>  -22.8148    1.0000 </r>
       <r>  -22.8145    1.0000 </r>
       <r>  -21.2560    1.0000 </r>
       <r>  -21.2516    1.0000 </r>
       <r>  -21.1632    1.0000 </r>
       <r>  -19.3750    1.0000 </r>
       <r>  -19.3486    1.0000 </r>
       <r>  -18.8154    1.0000 </r>
       <r>  -18.7938    1.0000 </r>
       <r>  -18.7931    1.0000 </r>
       <r>  -18.4052    1.0000 </r>
       <r>  -17.8601    1.0000 </r>
       <r>  -17.7382    1.0000 </r>
       <r>  -16.4848    1.0000 </r>
       <r>  -16.4391    1.0000 </r>
       <r>  -15.6097    1.0000 </r>
       <r>  -15.3948    1.0000 </r>
       <r>  -15.0026    1.0000 </r>
       <r>  -14.9563    1.0000 </r>
       <r>  -14.9123    1.0000 </r>
       <r>  -14.9056    1.0000 </r>
       <r>  -14.7899    1.0000 </r>
       <r>  -14.5156    1.0000 </r>
       <r>  -14.5101    1.0000 </r>
       <r>  -14.4716    1.0000 </r>
       <r>  -14.4532    1.0000 </r>
       <r>  -13.6529    1.0000 </r>
       <r>  -12.7971    1.0000 </r>
       <r>  -12.2138    1.0000 </r>
       <r>  -12.2082    1.0000 </r>
       <r>  -12.0280    1.0000 </r>
       <r>  -11.9242    1.0000 </r>
       <r>  -11.8619    1.0000 </r>
       <r>  -11.5737    1.0000 </r>
       <r>  -11.5551    1.0000 </r>
       <r>  -11.4015    1.0000 </r>
       <r>  -11.3942    1.0000 </r>
       <r>  -10.1645    1.0000 </r>
       <r>  -10.1638    1.0000 </r>
       <r>  -10.1363    1.0000 </r>
       <r>   -9.9818    1.0000 </r>
       <r>   -9.9599    1.0000 </r>
       <r>   -9.2968    1.0000 </r>
       <r>   -9.2933    1.0000 </r>
       <r>   -9.2274    1.0000 </r>
       <r>   -9.2222    1.0000 </r>
       <r>   -9.1463    1.0000 </r>
       <r>   -9.1385    1.0000 </r>
       <r>   -8.9689    1.0000 </r>
       <r>   -8.9146    1.0000 </r>
       <r>   -8.8632    1.0000 </r>
       <r>   -8.8274    1.0000 </r>
       <r>   -8.8253    1.0000 </r>
       <r>   -8.7620    1.0000 </r>
       <r>   -8.7574    1.0000 </r>
       <r>   -8.7271    1.0000 </r>
       <r>   -8.7240    1.0000 </r>
       <r>   -8.7175    1.0000 </r>
       <r>   -8.7162    1.0000 </r>
       <r>   -8.6606    1.0000 </r>
       <r>   -8.6569    1.0000 </r>
       <r>   -8.6430    1.0000 </r>
       <r>   -8.5570    1.0000 </r>
       <r>   -8.5532    1.0000 </r>
       <r>   -8.1494    1.0000 </r>
       <r>   -8.0827    1.0000 </r>
       <r>   -8.0798    1.0000 </r>
       <r>   -7.5858    1.0000 </r>
       <r>   -7.5848    1.0000 </r>
       <r>   -7.3686    1.0000 </r>
       <r>   -7.3509    1.0000 </r>
       <r>   -7.3449    1.0000 </r>
       <r>   -7.2713    1.0000 </r>
       <r>   -7.2470    1.0000 </r>
       <r>   -7.0853    1.0000 </r>
       <r>   -6.7780    1.0000 </r>
       <r>   -6.7705    1.0000 </r>
       <r>   -4.0872    0.0000 </r>
       <r>   -4.0837    0.0000 </r>
       <r>   -4.0072    0.0000 </r>
       <r>   -3.5292    0.0000 </r>
       <r>   -3.5238    0.0000 </r>
       <r>   -3.4425    0.0000 </r>
       <r>   -3.4304    0.0000 </r>
       <r>   -3.2420    0.0000 </r>
       <r>   -3.2381    0.0000 </r>
       <r>   -3.0904    0.0000 </r>
       <r>   -1.2124    0.0000 </r>
       <r>   -1.1449    0.0000 </r>
       <r>   -1.1352    0.0000 </r>
       <r>   -0.9310    0.0000 </r>
       <r>   -0.8899    0.0000 </r>
       <r>   -0.8665    0.0000 </r>
       <r>   -0.7481    0.0000 </r>
       <r>   -0.5823    0.0000 </r>
       <r>   -0.5769    0.0000 </r>
       <r>   -0.3102    0.0000 </r>
       <r>    0.3476    0.0000 </r>
       <r>    0.3940    0.0000 </r>
       <r>    0.4113    0.0000 </r>
       <r>    0.4833    0.0000 </r>
       <r>    0.6179    0.0000 </r>
       <r>    0.6507    0.0000 </r>
       <r>    0.7213    0.0000 </r>
       <r>    0.7690    0.0000 </r>
       <r>    0.8081    0.0000 </r>
       <r>    0.9928    0.0000 </r>
       <r>    1.0125    0.0000 </r>
       <r>    1.1714    0.0000 </r>
       <r>    1.1766    0.0000 </r>
       <r>    1.2566    0.0000 </r>
       <r>    1.3073    0.0000 </r>
      </set>
      <set comment="kpoint 7">
       <r>  -26.9042    1.0000 </r>
       <r>  -26.8346    1.0000 </r>
       <r>  -26.0736    1.0000 </r>
       <r>  -26.0633    1.0000 </r>
       <r>  -25.8863    1.0000 </r>
       <r>  -24.3160    1.0000 </r>
       <r>  -24.3055    1.0000 </r>
       <r>  -24.1307    1.0000 </r>
       <r>  -23.6824    1.0000 </r>
       <r>  -23.6816    1.0000 </r>
       <r>  -23.6518    1.0000 </r>
       <r>  -23.6495    1.0000 </r>
       <r>  -22.8764    1.0000 </r>
       <r>  -22.8314    1.0000 </r>
       <r>  -22.8295    1.0000 </r>
       <r>  -22.8210    1.0000 </r>
       <r>  -22.8149    1.0000 </r>
       <r>  -22.8145    1.0000 </r>
       <r>  -21.2560    1.0000 </r>
       <r>  -21.2504    1.0000 </r>
       <r>  -21.1651    1.0000 </r>
       <r>  -19.3751    1.0000 </r>
       <r>  -19.3381    1.0000 </r>
       <r>  -18.8158    1.0000 </r>
       <r>  -18.7938    1.0000 </r>
       <r>  -18.7931    1.0000 </r>
       <r>  -18.4413    1.0000 </r>
       <r>  -17.8600    1.0000 </r>
       <r>  -17.6978    1.0000 </r>
       <r>  -16.5045    1.0000 </r>
       <r>  -16.4392    1.0000 </r>
       <r>  -15.6029    1.0000 </r>
       <r>  -15.3972    1.0000 </r>
       <r>  -15.0019    1.0000 </r>
       <r>  -14.9572    1.0000 </r>
       <r>  -14.9122    1.0000 </r>
       <r>  -14.9029    1.0000 </r>
       <r>  -14.7899    1.0000 </r>
       <r>  -14.5176    1.0000 </r>
       <r>  -14.5101    1.0000 </r>
       <r>  -14.4791    1.0000 </r>
       <r>  -14.4535    1.0000 </r>
       <r>  -13.6339    1.0000 </r>
       <r>  -12.8105    1.0000 </r>
       <r>  -12.2100    1.0000 </r>
       <r>  -12.2017    1.0000 </r>
       <r>  -12.0278    1.0000 </r>
       <r>  -11.9283    1.0000 </r>
       <r>  -11.8681    1.0000 </r>
       <r>  -11.5824    1.0000 </r>
       <r>  -11.5585    1.0000 </r>
       <r>  -11.3956    1.0000 </r>
       <r>  -11.3860    1.0000 </r>
       <r>  -10.1645    1.0000 </r>
       <r>  -10.1634    1.0000 </r>
       <r>  -10.1368    1.0000 </r>
       <r>   -9.9815    1.0000 </r>
       <r>   -9.9604    1.0000 </r>
       <r>   -9.2983    1.0000 </r>
       <r>   -9.2934    1.0000 </r>
       <r>   -9.2276    1.0000 </r>
       <r>   -9.2205    1.0000 </r>
       <r>   -9.1457    1.0000 </r>
       <r>   -9.1352    1.0000 </r>
       <r>   -8.9716    1.0000 </r>
       <r>   -8.9131    1.0000 </r>
       <r>   -8.8633    1.0000 </r>
       <r>   -8.8270    1.0000 </r>
       <r>   -8.8241    1.0000 </r>
       <r>   -8.7633    1.0000 </r>
       <r>   -8.7583    1.0000 </r>
       <r>   -8.7267    1.0000 </r>
       <r>   -8.7237    1.0000 </r>
       <r>   -8.7173    1.0000 </r>
       <r>   -8.7163    1.0000 </r>
       <r>   -8.6621    1.0000 </r>
       <r>   -8.6573    1.0000 </r>
       <r>   -8.6413    1.0000 </r>
       <r>   -8.5586    1.0000 </r>
       <r>   -8.5531    1.0000 </r>
       <r>   -8.1480    1.0000 </r>
       <r>   -8.0837    1.0000 </r>
       <r>   -8.0798    1.0000 </r>
       <r>   -7.5836    1.0000 </r>
       <r>   -7.5821    1.0000 </r>
       <r>   -7.3760    1.0000 </r>
       <r>   -7.3573    1.0000 </r>
       <r>   -7.3456    1.0000 </r>
       <r>   -7.2744    1.0000 </r>
       <r>   -7.2421    1.0000 </r>
       <r>   -7.0748    1.0000 </r>
       <r>   -6.7817    1.0000 </r>
       <r>   -6.7706    1.0000 </r>
       <r>   -4.0881    0.0000 </r>
       <r>   -4.0831    0.0000 </r>
       <r>   -4.0090    0.0000 </r>
       <r>   -3.5258    0.0000 </r>
       <r>   -3.5192    0.0000 </r>
       <r>   -3.4419    0.0000 </r>
       <r>   -3.4248    0.0000 </r>
       <r>   -3.2470    0.0000 </r>
       <r>   -3.2407    0.0000 </r>
       <r>   -3.0962    0.0000 </r>
       <r>   -1.2074    0.0000 </r>
       <r>   -1.1450    0.0000 </r>
       <r>   -1.1313    0.0000 </r>
       <r>   -0.9342    0.0000 </r>
       <r>   -0.8985    0.0000 </r>
       <r>   -0.8664    0.0000 </r>
       <r>   -0.7420    0.0000 </r>
       <r>   -0.5844    0.0000 </r>
       <r>   -0.5767    0.0000 </r>
       <r>   -0.3028    0.0000 </r>
       <r>    0.3271    0.0000 </r>
       <r>    0.3965    0.0000 </r>
       <r>    0.4019    0.0000 </r>
       <r>    0.4698    0.0000 </r>
       <r>    0.6131    0.0000 </r>
       <r>    0.6479    0.0000 </r>
       <r>    0.7321    0.0000 </r>
       <r>    0.7922    0.0000 </r>
       <r>    0.8398    0.0000 </r>
       <r>    0.9895    0.0000 </r>
       <r>    1.0186    0.0000 </r>
       <r>    1.1496    0.0000 </r>
       <r>    1.1656    0.0000 </r>
       <r>    1.2470    0.0000 </r>
       <r>    1.5257    0.0000 </r>
      </set>
      <set comment="kpoint 8">
       <r>  -26.9030    1.0000 </r>
       <r>  -26.8363    1.0000 </r>
       <r>  -26.0736    1.0000 </r>
       <r>  -26.0597    1.0000 </r>
       <r>  -25.8900    1.0000 </r>
       <r>  -24.3160    1.0000 </r>
       <r>  -24.3017    1.0000 </r>
       <r>  -24.1340    1.0000 </r>
       <r>  -23.6824    1.0000 </r>
       <r>  -23.6812    1.0000 </r>
       <r>  -23.6526    1.0000 </r>
       <r>  -23.6496    1.0000 </r>
       <r>  -22.8753    1.0000 </r>
       <r>  -22.8322    1.0000 </r>
       <r>  -22.8295    1.0000 </r>
       <r>  -22.8209    1.0000 </r>
       <r>  -22.8150    1.0000 </r>
       <r>  -22.8145    1.0000 </r>
       <r>  -21.2560    1.0000 </r>
       <r>  -21.2489    1.0000 </r>
       <r>  -21.1672    1.0000 </r>
       <r>  -19.3751    1.0000 </r>
       <r>  -19.3258    1.0000 </r>
       <r>  -18.8162    1.0000 </r>
       <r>  -18.7939    1.0000 </r>
       <r>  -18.7932    1.0000 </r>
       <r>  -18.4788    1.0000 </r>
       <r>  -17.8598    1.0000 </r>
       <r>  -17.6551    1.0000 </r>
       <r>  -16.5271    1.0000 </r>
       <r>  -16.4393    1.0000 </r>
       <r>  -15.5952    1.0000 </r>
       <r>  -15.3999    1.0000 </r>
       <r>  -15.0010    1.0000 </r>
       <r>  -14.9582    1.0000 </r>
       <r>  -14.9121    1.0000 </r>
       <r>  -14.8998    1.0000 </r>
       <r>  -14.7900    1.0000 </r>
       <r>  -14.5198    1.0000 </r>
       <r>  -14.5100    1.0000 </r>
       <r>  -14.4872    1.0000 </r>
       <r>  -14.4538    1.0000 </r>
       <r>  -13.6124    1.0000 </r>
       <r>  -12.8260    1.0000 </r>
       <r>  -12.2056    1.0000 </r>
       <r>  -12.1940    1.0000 </r>
       <r>  -12.0277    1.0000 </r>
       <r>  -11.9330    1.0000 </r>
       <r>  -11.8755    1.0000 </r>
       <r>  -11.5910    1.0000 </r>
       <r>  -11.5620    1.0000 </r>
       <r>  -11.3893    1.0000 </r>
       <r>  -11.3777    1.0000 </r>
       <r>  -10.1645    1.0000 </r>
       <r>  -10.1628    1.0000 </r>
       <r>  -10.1374    1.0000 </r>
       <r>   -9.9812    1.0000 </r>
       <r>   -9.9610    1.0000 </r>
       <r>   -9.2999    1.0000 </r>
       <r>   -9.2935    1.0000 </r>
       <r>   -9.2278    1.0000 </r>
       <r>   -9.2186    1.0000 </r>
       <r>   -9.1451    1.0000 </r>
       <r>   -9.1313    1.0000 </r>
       <r>   -8.9748    1.0000 </r>
       <r>   -8.9115    1.0000 </r>
       <r>   -8.8635    1.0000 </r>
       <r>   -8.8266    1.0000 </r>
       <r>   -8.8228    1.0000 </r>
       <r>   -8.7648    1.0000 </r>
       <r>   -8.7591    1.0000 </r>
       <r>   -8.7263    1.0000 </r>
       <r>   -8.7241    1.0000 </r>
       <r>   -8.7165    1.0000 </r>
       <r>   -8.7162    1.0000 </r>
       <r>   -8.6636    1.0000 </r>
       <r>   -8.6577    1.0000 </r>
       <r>   -8.6395    1.0000 </r>
       <r>   -8.5605    1.0000 </r>
       <r>   -8.5531    1.0000 </r>
       <r>   -8.1464    1.0000 </r>
       <r>   -8.0848    1.0000 </r>
       <r>   -8.0797    1.0000 </r>
       <r>   -7.5811    1.0000 </r>
       <r>   -7.5789    1.0000 </r>
       <r>   -7.3842    1.0000 </r>
       <r>   -7.3646    1.0000 </r>
       <r>   -7.3460    1.0000 </r>
       <r>   -7.2771    1.0000 </r>
       <r>   -7.2372    1.0000 </r>
       <r>   -7.0635    1.0000 </r>
       <r>   -6.7861    1.0000 </r>
       <r>   -6.7706    1.0000 </r>
       <r>   -4.0891    0.0000 </r>
       <r>   -4.0826    0.0000 </r>
       <r>   -4.0110    0.0000 </r>
       <r>   -3.5220    0.0000 </r>
       <r>   -3.5139    0.0000 </r>
       <r>   -3.4411    0.0000 </r>
       <r>   -3.4183    0.0000 </r>
       <r>   -3.2528    0.0000 </r>
       <r>   -3.2437    0.0000 </r>
       <r>   -3.1028    0.0000 </r>
       <r>   -1.2016    0.0000 </r>
       <r>   -1.1452    0.0000 </r>
       <r>   -1.1269    0.0000 </r>
       <r>   -0.9380    0.0000 </r>
       <r>   -0.9078    0.0000 </r>
       <r>   -0.8663    0.0000 </r>
       <r>   -0.7356    0.0000 </r>
       <r>   -0.5869    0.0000 </r>
       <r>   -0.5765    0.0000 </r>
       <r>   -0.2941    0.0000 </r>
       <r>    0.2984    0.0000 </r>
       <r>    0.3989    0.0000 </r>
       <r>    0.4022    0.0000 </r>
       <r>    0.4567    0.0000 </r>
       <r>    0.6074    0.0000 </r>
       <r>    0.6459    0.0000 </r>
       <r>    0.7428    0.0000 </r>
       <r>    0.8162    0.0000 </r>
       <r>    0.8698    0.0000 </r>
       <r>    0.9846    0.0000 </r>
       <r>    1.0259    0.0000 </r>
       <r>    1.1250    0.0000 </r>
       <r>    1.1586    0.0000 </r>
       <r>    1.2382    0.0000 </r>
       <r>    1.3822    0.0000 </r>
      </set>
      <set comment="kpoint 9">
       <r>  -26.9015    1.0000 </r>
       <r>  -26.8381    1.0000 </r>
       <r>  -26.0736    1.0000 </r>
       <r>  -26.0555    1.0000 </r>
       <r>  -25.8942    1.0000 </r>
       <r>  -24.3160    1.0000 </r>
       <r>  -24.2973    1.0000 </r>
       <r>  -24.1377    1.0000 </r>
       <r>  -23.6824    1.0000 </r>
       <r>  -23.6807    1.0000 </r>
       <r>  -23.6536    1.0000 </r>
       <r>  -23.6496    1.0000 </r>
       <r>  -22.8741    1.0000 </r>
       <r>  -22.8332    1.0000 </r>
       <r>  -22.8295    1.0000 </r>
       <r>  -22.8207    1.0000 </r>
       <r>  -22.8151    1.0000 </r>
       <r>  -22.8146    1.0000 </r>
       <r>  -21.2559    1.0000 </r>
       <r>  -21.2472    1.0000 </r>
       <r>  -21.1695    1.0000 </r>
       <r>  -19.3752    1.0000 </r>
       <r>  -19.3120    1.0000 </r>
       <r>  -18.8168    1.0000 </r>
       <r>  -18.7940    1.0000 </r>
       <r>  -18.7932    1.0000 </r>
       <r>  -18.5168    1.0000 </r>
       <r>  -17.8597    1.0000 </r>
       <r>  -17.6111    1.0000 </r>
       <r>  -16.5522    1.0000 </r>
       <r>  -16.4394    1.0000 </r>
       <r>  -15.5871    1.0000 </r>
       <r>  -15.4031    1.0000 </r>
       <r>  -15.0000    1.0000 </r>
       <r>  -14.9592    1.0000 </r>
       <r>  -14.9121    1.0000 </r>
       <r>  -14.8962    1.0000 </r>
       <r>  -14.7903    1.0000 </r>
       <r>  -14.5223    1.0000 </r>
       <r>  -14.5100    1.0000 </r>
       <r>  -14.4956    1.0000 </r>
       <r>  -14.4541    1.0000 </r>
       <r>  -13.5889    1.0000 </r>
       <r>  -12.8434    1.0000 </r>
       <r>  -12.2006    1.0000 </r>
       <r>  -12.1853    1.0000 </r>
       <r>  -12.0278    1.0000 </r>
       <r>  -11.9380    1.0000 </r>
       <r>  -11.8841    1.0000 </r>
       <r>  -11.5994    1.0000 </r>
       <r>  -11.5653    1.0000 </r>
       <r>  -11.3830    1.0000 </r>
       <r>  -11.3696    1.0000 </r>
       <r>  -10.1644    1.0000 </r>
       <r>  -10.1622    1.0000 </r>
       <r>  -10.1380    1.0000 </r>
       <r>   -9.9809    1.0000 </r>
       <r>   -9.9617    1.0000 </r>
       <r>   -9.3016    1.0000 </r>
       <r>   -9.2936    1.0000 </r>
       <r>   -9.2281    1.0000 </r>
       <r>   -9.2168    1.0000 </r>
       <r>   -9.1444    1.0000 </r>
       <r>   -9.1270    1.0000 </r>
       <r>   -8.9785    1.0000 </r>
       <r>   -8.9096    1.0000 </r>
       <r>   -8.8637    1.0000 </r>
       <r>   -8.8261    1.0000 </r>
       <r>   -8.8212    1.0000 </r>
       <r>   -8.7665    1.0000 </r>
       <r>   -8.7597    1.0000 </r>
       <r>   -8.7258    1.0000 </r>
       <r>   -8.7252    1.0000 </r>
       <r>   -8.7166    1.0000 </r>
       <r>   -8.7146    1.0000 </r>
       <r>   -8.6652    1.0000 </r>
[...]
       <r>   -7.2592    1.0000 </r>
       <r>   -7.1145    1.0000 </r>
       <r>   -6.7705    1.0000 </r>
       <r>   -6.7692    1.0000 </r>
       <r>   -4.0851    0.0000 </r>
       <r>   -4.0848    0.0000 </r>
       <r>   -4.0027    0.0000 </r>
       <r>   -3.5375    0.0000 </r>
       <r>   -3.5348    0.0000 </r>
       <r>   -3.4442    0.0000 </r>
       <r>   -3.4430    0.0000 </r>
       <r>   -3.2321    0.0000 </r>
       <r>   -3.2300    0.0000 </r>
       <r>   -3.0768    0.0000 </r>
       <r>   -1.2243    0.0000 </r>
       <r>   -1.1447    0.0000 </r>
       <r>   -1.1442    0.0000 </r>
       <r>   -0.9235    0.0000 </r>
       <r>   -0.8668    0.0000 </r>
       <r>   -0.8662    0.0000 </r>
       <r>   -0.7659    0.0000 </r>
       <r>   -0.5775    0.0000 </r>
       <r>   -0.5772    0.0000 </r>
       <r>   -0.3273    0.0000 </r>
       <r>    0.3582    0.0000 </r>
       <r>    0.3874    0.0000 </r>
       <r>    0.5295    0.0000 </r>
       <r>    0.5299    0.0000 </r>
       <r>    0.6042    0.0000 </r>
       <r>    0.6747    0.0000 </r>
       <r>    0.6779    0.0000 </r>
       <r>    0.6982    0.0000 </r>
       <r>    0.6991    0.0000 </r>
       <r>    0.9990    0.0000 </r>
       <r>    0.9998    0.0000 </r>
       <r>    1.1853    0.0000 </r>
       <r>    1.2677    0.0000 </r>
       <r>    1.2893    0.0000 </r>
       <r>    1.2912    0.0000 </r>
      </set>
     </set>
    </set>
   </array>
  </eigenvalues>
  <separator name="orbital magnetization" >
   <v name="MAGDIPOLOUT">      0.00000000      0.00000000      0.00000000</v>
  </separator>
  <dos>
   <i name="efermi">     -6.70495828 </i>
   <total>
    <array>
     <dimension dim="1">gridpoints</dimension>
     <dimension dim="2">spin</dimension>
     <field>energy</field>
     <field>total</field>
     <field>integrated</field>
     <set>
      <set comment="spin 1">
       <r>   -28.3307     0.0000     0.0000 </r>
       <r>   -28.2264     0.0000     0.0000 </r>
       <r>   -28.1220     0.0000     0.0000 </r>
       <r>   -28.0177     0.0000     0.0000 </r>
       <r>   -27.9133     0.0000     0.0000 </r>
       <r>   -27.8090     0.0000     0.0000 </r>
       <r>   -27.7046     0.0000     0.0000 </r>
       <r>   -27.6003     0.0000     0.0000 </r>
       <r>   -27.4960     0.0000     0.0000 </r>
       <r>   -27.3916     0.0000     0.0000 </r>
       <r>   -27.2873     0.0000     0.0000 </r>
       <r>   -27.1829     0.0000     0.0000 </r>
       <r>   -27.0786     0.0000     0.0000 </r>
       <r>   -26.9742     0.0000     0.0000 </r>
       <r>   -26.8699    20.1842     2.1061 </r>
       <r>   -26.7655     7.0278     4.0000 </r>
       <r>   -26.6612     0.0000     4.0000 </r>
       <r>   -26.5568     0.0000     4.0000 </r>
       <r>   -26.4525     0.0000     4.0000 </r>
       <r>   -26.3481     0.0000     4.0000 </r>
       <r>   -26.2438     0.0000     4.0000 </r>
       <r>   -26.1395     0.0000     4.0000 </r>
       <r>   -26.0351    26.6590     6.7818 </r>
       <r>   -25.9308    18.7967     9.0281 </r>
       <r>   -25.8264     6.7083    10.0000 </r>
       <r>   -25.7221     0.0000    10.0000 </r>
       <r>   -25.6177     0.0000    10.0000 </r>
       <r>   -25.5134     0.0000    10.0000 </r>
       <r>   -25.4090     0.0000    10.0000 </r>
       <r>   -25.3047     0.0000    10.0000 </r>
       <r>   -25.2003     0.0000    10.0000 </r>
       <r>   -25.0960     0.0000    10.0000 </r>
       <r>   -24.9916     0.0000    10.0000 </r>
       <r>   -24.8873     0.0000    10.0000 </r>
       <r>   -24.7829     0.0000    10.0000 </r>
       <r>   -24.6786     0.0000    10.0000 </r>
       <r>   -24.5743     0.0000    10.0000 </r>
       <r>   -24.4699     0.0000    10.0000 </r>
       <r>   -24.3656     0.0000    10.0000 </r>
       <r>   -24.2612    28.2443    12.9472 </r>
       <r>   -24.1569    15.7944    15.2148 </r>
       <r>   -24.0525     4.1528    16.0000 </r>
       <r>   -23.9482     0.0000    16.0000 </r>
       <r>   -23.8438     0.0000    16.0000 </r>
       <r>   -23.7395     0.0000    16.0000 </r>
       <r>   -23.6351    76.1878    23.9499 </r>
       <r>   -23.5308     0.0000    24.0000 </r>
       <r>   -23.4264     0.0000    24.0000 </r>
       <r>   -23.3221     0.0000    24.0000 </r>
       <r>   -23.2178     0.0000    24.0000 </r>
       <r>   -23.1134     0.0000    24.0000 </r>
       <r>   -23.0091     0.0000    24.0000 </r>
       <r>   -22.9047     0.0005    24.0000 </r>
       <r>   -22.8004   114.2342    35.9200 </r>
       <r>   -22.6960     0.0000    36.0000 </r>
       <r>   -22.5917     0.0000    36.0000 </r>
       <r>   -22.4873     0.0000    36.0000 </r>
       <r>   -22.3830     0.0000    36.0000 </r>
       <r>   -22.2786     0.0000    36.0000 </r>
       <r>   -22.1743     0.0000    36.0000 </r>
       <r>   -22.0699     0.0000    36.0000 </r>
       <r>   -21.9656     0.0000    36.0000 </r>
       <r>   -21.8613     0.0000    36.0000 </r>
       <r>   -21.7569     0.0000    36.0000 </r>
       <r>   -21.6526     0.0000    36.0000 </r>
       <r>   -21.5482     0.0000    36.0000 </r>
       <r>   -21.4439     0.0000    36.0000 </r>
       <r>   -21.3395     0.0000    36.0000 </r>
       <r>   -21.2352    27.8467    38.9057 </r>
       <r>   -21.1308    18.5278    42.0000 </r>
       <r>   -21.0265     0.0000    42.0000 </r>
       <r>   -20.9221     0.0000    42.0000 </r>
       <r>   -20.8178     0.0000    42.0000 </r>
       <r>   -20.7134     0.0000    42.0000 </r>
       <r>   -20.6091     0.0000    42.0000 </r>
       <r>   -20.5048     0.0000    42.0000 </r>
       <r>   -20.4004     0.0000    42.0000 </r>
       <r>   -20.2961     0.0000    42.0000 </r>
       <r>   -20.1917     0.0000    42.0000 </r>
       <r>   -20.0874     0.0000    42.0000 </r>
       <r>   -19.9830     0.0000    42.0000 </r>
       <r>   -19.8787     0.0000    42.0000 </r>
       <r>   -19.7743     0.0000    42.0000 </r>
       <r>   -19.6700     0.0000    42.0000 </r>
       <r>   -19.5656     0.0000    42.0000 </r>
       <r>   -19.4613     0.0000    42.0000 </r>
       <r>   -19.3569    21.7232    44.2667 </r>
       <r>   -19.2526     2.9917    44.7455 </r>
       <r>   -19.1483     3.0634    45.1197 </r>
       <r>   -19.0439     4.1646    45.8346 </r>
       <r>   -18.9396     3.6472    46.3139 </r>
       <r>   -18.8352     6.4099    47.1022 </r>
       <r>   -18.7309    48.5784    53.0690 </r>
       <r>   -18.6265     1.4589    53.2856 </r>
       <r>   -18.5222     1.1605    53.4544 </r>
       <r>   -18.4178     1.2848    53.6341 </r>
       <r>   -18.3135     1.8629    53.8611 </r>
       <r>   -18.2091     0.0000    54.0000 </r>
       <r>   -18.1048     0.0000    54.0000 </r>
       <r>   -18.0004     0.0000    54.0000 </r>
       <r>   -17.8961     0.0000    54.0000 </r>
       <r>   -17.7917    21.6037    56.2543 </r>
       <r>   -17.6874     1.2542    56.4309 </r>
       <r>   -17.5831     1.2806    56.5670 </r>
       <r>   -17.4787     1.0810    56.7128 </r>
       <r>   -17.3744     1.2736    56.8662 </r>
       <r>   -17.2700     1.5774    57.0313 </r>
       <r>   -17.1657     4.7009    57.5572 </r>
       <r>   -17.0613     1.9945    57.8748 </r>
       <r>   -16.9570     2.7044    58.2155 </r>
       <r>   -16.8526     3.0384    58.6170 </r>
       <r>   -16.7483     1.9415    59.0693 </r>
       <r>   -16.6439     1.3528    59.2745 </r>
       <r>   -16.5396     1.5999    59.5003 </r>
       <r>   -16.4352    17.9406    61.4387 </r>
       <r>   -16.3309     0.0000    62.0000 </r>
       <r>   -16.2266     0.0000    62.0000 </r>
       <r>   -16.1222     0.0000    62.0000 </r>
       <r>   -16.0179     0.0000    62.0000 </r>
       <r>   -15.9135     0.0000    62.0000 </r>
       <r>   -15.8092     0.0000    62.0000 </r>
       <r>   -15.7048     0.0000    62.0000 </r>
       <r>   -15.6005     4.0603    62.4237 </r>
       <r>   -15.4961     9.4718    63.6217 </r>
       <r>   -15.3918    16.3945    65.7774 </r>
       <r>   -15.2874     0.0000    66.0000 </r>
       <r>   -15.1831     0.0000    66.0000 </r>
       <r>   -15.0787     0.0000    66.0000 </r>
       <r>   -14.9744    23.6045    68.4630 </r>
       <r>   -14.8701    27.7479    72.8954 </r>
       <r>   -14.7657    23.3179    75.9998 </r>
       <r>   -14.6614     0.0000    76.0000 </r>
       <r>   -14.5570     3.4350    76.3584 </r>
       <r>   -14.4527    46.5044    83.2193 </r>
       <r>   -14.3483     0.0000    84.0000 </r>
       <r>   -14.2440     0.0000    84.0000 </r>
       <r>   -14.1396     0.0000    84.0000 </r>
       <r>   -14.0353     0.0000    84.0000 </r>
       <r>   -13.9309     0.0000    84.0000 </r>
       <r>   -13.8266     0.0000    84.0000 </r>
       <r>   -13.7222     0.0005    84.0001 </r>
       <r>   -13.6179     3.6715    84.4498 </r>
       <r>   -13.5136     1.9938    84.7081 </r>
       <r>   -13.4092     1.6467    84.9385 </r>
       <r>   -13.3049     5.0948    85.5316 </r>
       <r>   -13.2005     2.6702    85.9453 </r>
       <r>   -13.0962     2.9923    86.4122 </r>
       <r>   -12.9918     4.9998    87.0550 </r>
       <r>   -12.8875     1.9279    87.3345 </r>
       <r>   -12.7831     3.2780    87.7421 </r>
       <r>   -12.6788     0.0000    88.0000 </r>
       <r>   -12.5744     0.0000    88.0000 </r>
       <r>   -12.4701     0.0000    88.0000 </r>
       <r>   -12.3657     0.0000    88.0000 </r>
       <r>   -12.2614     0.0000    88.0000 </r>
       <r>   -12.1571    15.6685    89.6350 </r>
       <r>   -12.0527    20.2908    92.4173 </r>
       <r>   -11.9484    24.5896    96.3992 </r>
       <r>   -11.8440    10.3411    97.9457 </r>
       <r>   -11.7397     4.5317    98.4729 </r>
       <r>   -11.6353     5.8331    99.2087 </r>
       <r>   -11.5310    17.5345   101.2630 </r>
       <r>   -11.4266     6.4359   102.1049 </r>
       <r>   -11.3223    20.3986   105.0285 </r>
       <r>   -11.2179     4.4721   106.0000 </r>
       <r>   -11.1136     0.0000   106.0000 </r>
       <r>   -11.0092     0.0000   106.0000 </r>
       <r>   -10.9049     0.0000   106.0000 </r>
       <r>   -10.8005     0.0000   106.0000 </r>
       <r>   -10.6962     0.0000   106.0000 </r>
       <r>   -10.5919     0.0000   106.0000 </r>
       <r>   -10.4875     0.0000   106.0000 </r>
       <r>   -10.3832     0.0000   106.0000 </r>
       <r>   -10.2788     0.0000   106.0000 </r>
       <r>   -10.1745     1.8847   106.1967 </r>
       <r>   -10.0701    19.1663   112.0000 </r>
       <r>    -9.9658    27.8983   114.9111 </r>
       <r>    -9.8614     0.0000   116.0000 </r>
       <r>    -9.7571     0.0000   116.0000 </r>
       <r>    -9.6527     0.0000   116.0000 </r>
       <r>    -9.5484     0.0000   116.0000 </r>
       <r>    -9.4440     0.0000   116.0000 </r>
       <r>    -9.3397     0.0479   116.0050 </r>
       <r>    -9.2354    39.9608   120.9365 </r>
       <r>    -9.1310    32.8031   126.1229 </r>
       <r>    -9.0267    18.4397   128.6908 </r>
       <r>    -8.9223     9.2316   130.0966 </r>
       <r>    -8.8180    49.9882   136.0828 </r>
       <r>    -8.7136    89.7634   147.7332 </r>
       <r>    -8.6093    55.7539   155.6511 </r>
       <r>    -8.5049    30.0280   160.0000 </r>
       <r>    -8.4006     0.0000   160.0000 </r>
       <r>    -8.2962     0.0000   160.0000 </r>
       <r>    -8.1919     0.0000   160.0000 </r>
       <r>    -8.0875    35.3568   163.6894 </r>
       <r>    -7.9832     0.0000   166.0000 </r>
       <r>    -7.8789     0.0000   166.0000 </r>
       <r>    -7.7745     0.0000   166.0000 </r>
       <r>    -7.6702     0.0000   166.0000 </r>
       <r>    -7.5658    13.4898   167.4076 </r>
       <r>    -7.4615    29.7349   171.4361 </r>
       <r>    -7.3571    12.7239   173.4944 </r>
       <r>    -7.2528    25.0887   178.2179 </r>
       <r>    -7.1484    13.7362   180.0000 </r>
       <r>    -7.0441     5.4636   180.5701 </r>
       <r>    -6.9397     6.9874   181.4291 </r>
       <r>    -6.8354    12.0097   183.0532 </r>
       <r>    -6.7310    26.1948   186.0000 </r>
       <r>    -6.6267     0.0000   186.0000 </r>
       <r>    -6.5224     0.0000   186.0000 </r>
       <r>    -6.4180     0.0000   186.0000 </r>
       <r>    -6.3137     0.0000   186.0000 </r>
       <r>    -6.2093     0.0000   186.0000 </r>
       <r>    -6.1050     0.0000   186.0000 </r>
       <r>    -6.0006     0.0000   186.0000 </r>
       <r>    -5.8963     0.0000   186.0000 </r>
       <r>    -5.7919     0.0000   186.0000 </r>
       <r>    -5.6876     0.0000   186.0000 </r>
       <r>    -5.5832     0.0000   186.0000 </r>
       <r>    -5.4789     0.0000   186.0000 </r>
       <r>    -5.3745     0.0000   186.0000 </r>
       <r>    -5.2702     0.0000   186.0000 </r>
       <r>    -5.1659     0.0000   186.0000 </r>
       <r>    -5.0615     0.0000   186.0000 </r>
       <r>    -4.9572     0.0000   186.0000 </r>
       <r>    -4.8528     0.0000   186.0000 </r>
       <r>    -4.7485     0.0000   186.0000 </r>
       <r>    -4.6441     0.0000   186.0000 </r>
       <r>    -4.5398     0.0000   186.0000 </r>
       <r>    -4.4354     0.0000   186.0000 </r>
       <r>    -4.3311     0.0000   186.0000 </r>
       <r>    -4.2267     0.0000   186.0000 </r>
       <r>    -4.1224     0.0314   186.0033 </r>
       <r>    -4.0180    42.9343   191.3468 </r>
       <r>    -3.9137     0.0000   192.0000 </r>
       <r>    -3.8093     0.0000   192.0000 </r>
       <r>    -3.7050     0.0000   192.0000 </r>
       <r>    -3.6007     0.0000   192.0000 </r>
       <r>    -3.4963    15.3722   193.6040 </r>
       <r>    -3.3920    35.2156   198.5413 </r>
       <r>    -3.2876    24.5928   201.5995 </r>
       <r>    -3.1833    23.9253   204.8965 </r>
       <r>    -3.0789     6.9408   205.8576 </r>
       <r>    -2.9746     0.0000   206.0000 </r>
       <r>    -2.8702     0.0000   206.0000 </r>
       <r>    -2.7659     0.0000   206.0000 </r>
       <r>    -2.6615     0.0000   206.0000 </r>
       <r>    -2.5572     0.0000   206.0000 </r>
       <r>    -2.4528     0.0000   206.0000 </r>
       <r>    -2.3485     0.0000   206.0000 </r>
       <r>    -2.2442     0.0000   206.0000 </r>
       <r>    -2.1398     0.0000   206.0000 </r>
       <r>    -2.0355     0.0000   206.0000 </r>
       <r>    -1.9311     0.0000   206.0000 </r>
       <r>    -1.8268     0.0000   206.0000 </r>
       <r>    -1.7224     0.0000   206.0000 </r>
       <r>    -1.6181     0.0000   206.0000 </r>
       <r>    -1.5137     0.0000   206.0000 </r>
       <r>    -1.4094     0.0000   206.0000 </r>
       <r>    -1.3050     0.0000   206.0000 </r>
       <r>    -1.2007     4.5252   206.4722 </r>
       <r>    -1.0963    35.7988   210.4355 </r>
       <r>    -0.9920    27.4298   213.7955 </r>
       <r>    -0.8877    12.5727   215.6786 </r>
       <r>    -0.7833     0.0083   218.0009 </r>
       <r>    -0.6790     9.1463   219.1544 </r>
       <r>    -0.5746    29.6915   222.9315 </r>
       <r>    -0.4703     0.0000   224.0000 </r>
       <r>    -0.3659     0.0000   224.0000 </r>
       <r>    -0.2616     6.2287   224.6499 </r>
       <r>    -0.1572     2.9843   225.0781 </r>
       <r>    -0.0529     5.8189   226.0405 </r>
       <r>     0.0515     7.5584   226.9887 </r>
       <r>     0.1558     1.9214   227.2338 </r>
       <r>     0.2602     6.1138   227.9380 </r>
       <r>     0.3645     7.6155   228.8947 </r>
       <r>     0.4688    36.6085   233.2866 </r>
       <r>     0.5732     6.9191   234.2886 </r>
       <r>     0.6775    18.8467   236.4999 </r>
       <r>     0.7819    24.2052   240.0591 </r>
       <r>     0.8862    17.5768   242.4007 </r>
       <r>     0.9906    23.5609   245.0585 </r>
       <r>     1.0949    24.2079   248.9260 </r>
       <r>     1.1993    21.3211   251.7581 </r>
       <r>     1.3036    17.3657   253.7787 </r>
       <r>     1.4080    12.1504   255.4679 </r>
       <r>     1.5123     0.9465   255.8654 </r>
       <r>     1.6167     0.3194   256.0000 </r>
       <r>     1.7210     0.0000   256.0000 </r>
       <r>     1.8253     0.0000   256.0000 </r>
       <r>     1.9297     0.0000   256.0000 </r>
       <r>     2.0340     0.0000   256.0000 </r>
       <r>     2.1384     0.0000   256.0000 </r>
       <r>     2.2427     0.0000   256.0000 </r>
       <r>     2.3471     0.0000   256.0000 </r>
       <r>     2.4514     0.0000   256.0000 </r>
       <r>     2.5558     0.0000   256.0000 </r>
       <r>     2.6601     0.0000   256.0000 </r>
       <r>     2.7645     0.0000   256.0000 </r>
       <r>     2.8688     0.0000   256.0000 </r>
       <r>     2.9732     0.0000   256.0000 </r>
      </set>
     </set>
    </array>
   </total>
  </dos>
 </calculation>
 <structure name="finalpos" >
  <crystal>
   <varray name="basis" >
    <v>      14.33547051       0.00371256       0.00000000 </v>
    <v>      -7.16451982      12.41299063       0.00000000 </v>
    <v>      -0.00000000      -0.00000000      20.00000000 </v>
   </varray>
   <i name="volume">   3559.45319792 </i>
   <varray name="rec_basis" >
    <v>       0.06974662       0.04025629       0.00000000 </v>
    <v>      -0.00002086       0.08054872       0.00000000 </v>
    <v>       0.00000000       0.00000000       0.05000000 </v>
   </varray>
  </crystal>
  <varray name="positions" >
   <v>       0.82400347       0.41663592       0.31167373 </v>
   <v>       0.91147291       0.46035325       0.54541374 </v>
   <v>       0.69431785       0.43509433       0.48492373 </v>
   <v>       0.69433994       0.26848883       0.48492671 </v>
   <v>       0.52780449       0.26853754       0.48490128 </v>
   <v>       0.24967103       0.54629149       0.48675574 </v>
   <v>       0.24962008       0.71289136       0.48673877 </v>
   <v>       0.41612306       0.71278752       0.48669664 </v>
   <v>       0.44178450       0.93006527       0.42643640 </v>
   <v>       0.54634995       0.13897157       0.31166804 </v>
   <v>       0.44181398       0.52109144       0.42645959 </v>
   <v>       0.54635576       0.41664501       0.31168173 </v>
   <v>       0.03250492       0.52090846       0.42653836 </v>
   <v>       0.50244254       0.05117805       0.54525899 </v>
   <v>       0.39757900       0.84181924       0.65989934 </v>
   <v>       0.50236887       0.46046003       0.54525985 </v>
   <v>       0.39761735       0.56493648       0.65999874 </v>
   <v>       0.12110238       0.56530608       0.65993249 </v>
   <v>       0.86400480       0.43662377       0.48575266 </v>
   <v>       0.92422353       0.46674737       0.42575805 </v>
   <v>       0.87107796       0.44017265       0.36223060 </v>
   <v>       0.58656863       0.37629932       0.48506715 </v>
   <v>       0.74323611       0.37624090       0.48514614 </v>
   <v>       0.58658827       0.21953811       0.48507972 </v>
   <v>       0.35740545       0.60504645       0.48657918 </v>
   <v>       0.20074729       0.60513588       0.48661793 </v>
   <v>       0.35735597       0.76178721       0.48654691 </v>
   <v>       0.52617334       0.09869771       0.48561649 </v>
   <v>       0.41792609       0.88258132       0.48606640 </v>
   <v>       0.49600164       0.03840361       0.42564056 </v>
   <v>       0.52265041       0.09164395       0.36213908 </v>
   <v>       0.52614889       0.43673821       0.48560500 </v>
   <v>       0.41792590       0.54470883       0.48610431 </v>
   <v>       0.49602491       0.46695541       0.42564269 </v>
   <v>       0.52269225       0.44038076       0.36213376 </v>
   <v>       0.07999177       0.54469089       0.48617687 </v>
   <v>       0.44817361       0.94284675       0.54605852 </v>
   <v>       0.42146606       0.88947324       0.60953920 </v>
   <v>       0.44810584       0.51455620       0.54608823 </v>
   <v>       0.42141404       0.54116853       0.60960107 </v>
   <v>       0.01978338       0.51453867       0.54619305 </v>
   <v>       0.07325826       0.54130689       0.60964124 </v>
  </varray>
 </structure>
</modeling>
