<?xml version="1.0" encoding="ISO-8859-1"?>
<modeling>
 <generator>
  <i name="program" type="string">vasp </i>
  <i name="version" type="string">5.4.4.18Apr17-6-g9f103f2a35  </i>
  <i name="subversion" type="string">(build Jun 07 2020 16:50:00) complex            parallel </i>
  <i name="platform" type="string">LinuxIFC </i>
  <i name="date" type="string">2023 02 16 </i>
  <i name="time" type="string">08:35:52 </i>
 </generator>
 <incar>
  <i type="string" name="SYSTEM">Simulation for cell shape cell volume r</i>
  <i type="int" name="ISTART">     1</i>
  <i type="string" name="PREC">high</i>
  <i type="string" name="ALGO">48</i>
  <i type="int" name="ICHARG">    11</i>
  <i type="int" name="NELM">   200</i>
  <i type="int" name="IBRION">    -1</i>
  <i name="EDIFF">      0.00001000</i>
  <i name="EDIFFG">     -0.01000000</i>
  <i type="int" name="NSW">     0</i>
  <i type="int" name="ISIF">     2</i>
  <i name="ENCUT">    500.00000000</i>
  <i name="POTIM">      0.30000000</i>
  <i type="string" name="LREAL">A</i>
  <i type="int" name="ISMEAR">     0</i>
  <i name="SIGMA">      0.01000000</i>
  <i type="int" name="NWRITE">     0</i>
  <i type="logical" name="LWAVE"> F  </i>
  <i type="logical" name="LCHARG"> F  </i>
  <v type="int" name="KPOINT_BSE">    -1     0     0     0</v>
  <i type="int" name="NELM">   200</i>
  <i type="string" name="GGA">PE</i>
 </incar>
 <structure name="primitive_cell" >
  <crystal>
   <varray name="basis" >
    <v>      34.59039092      -0.00589627       0.00000000 </v>
    <v>     -17.28982622      29.94079688       0.00000000 </v>
    <v>       0.00000000       0.00000000      20.00000000 </v>
   </varray>
   <i name="volume">  20711.23845372 </i>
   <varray name="rec_basis" >
    <v>       0.02891261       0.01669608       0.00000000 </v>
    <v>       0.00000569       0.03340253       0.00000000 </v>
    <v>       0.00000000       0.00000000       0.05000000 </v>
   </varray>
  </crystal>
  <varray name="positions" >
   <v>      -0.01049702      -0.10319590       0.42925133 </v>
   <v>      -0.04027153      -0.12006581       0.46048687 </v>
   <v>      -0.06536744      -0.16655476       0.46011901 </v>
   <v>      -0.05361459      -0.09476175       0.49885193 </v>
   <v>       0.03649564      -0.04061497       0.49884334 </v>
   <v>      -0.05499763      -0.18562015       0.42890548 </v>
   <v>      -0.02816240      -0.04536251       0.49854156 </v>
   <v>       0.01861708      -0.02206299       0.49870696 </v>
   <v>      -0.09235843      -0.11765433      -0.46244578 </v>
   <v>      -0.10469452      -0.18986428       0.49764233 </v>
   <v>      -0.11699398      -0.16406869      -0.46294383 </v>
   <v>      -0.05073293      -0.02111446       0.49824964 </v>
   <v>       0.04286177       0.02478231       0.49889819 </v>
   <v>      -0.10375899      -0.09977999      -0.43066877 </v>
   <v>      -0.08716500      -0.03902026       0.49800073 </v>
   <v>      -0.12944603      -0.23953409       0.49409268 </v>
   <v>       0.09741619       0.00380080      -0.43007582 </v>
   <v>       0.09225019       0.04874249       0.49920755 </v>
   <v>      -0.02723854       0.02568673       0.49847121 </v>
   <v>      -0.17532325      -0.20552732       0.41948822 </v>
   <v>       0.01958477       0.04829403       0.49872935 </v>
   <v>       0.11521369       0.03298430      -0.46206087 </v>
   <v>      -0.08646989      -0.24458052      -0.43315900 </v>
   <v>      -0.11452264      -0.26325517      -0.46697438 </v>
   <v>      -0.15763353      -0.18533834      -0.42084911 </v>
   <v>      -0.16498930      -0.26482256       0.45008823 </v>
   <v>      -0.18188960      -0.24317461       0.40426652 </v>
   <v>       0.11746911       0.08730200       0.46059780 </v>
   <v>      -0.16987812      -0.16075386      -0.39460069 </v>
   <v>       0.03811776       0.08474337       0.49891126 </v>
   <v>      -0.17708191      -0.22651048      -0.41398129 </v>
   <v>      -0.10220120       0.00807724       0.42795969 </v>
   <v>       0.10055076       0.10014403       0.42934500 </v>
   <v>       0.16161048       0.05474209      -0.46279407 </v>
   <v>       0.15843765      -0.00116052      -0.39384478 </v>
   <v>      -0.05128218       0.05102914       0.49853922 </v>
   <v>      -0.20189757      -0.26403789       0.35330311 </v>
   <v>       0.20310058       0.03742774       0.41988914 </v>
   <v>      -0.13567560      -0.30965468      -0.46873386 </v>
   <v>       0.18299632       0.03550866      -0.42060570 </v>
   <v>      -0.08966355       0.03768418       0.45951645 </v>
   <v>      -0.18606403      -0.31122503       0.44723570 </v>
   <v>       0.16393272       0.10866887       0.45998795 </v>
   <v>       0.18730210       0.09273184       0.49751916 </v>
   <v>      -0.17247957      -0.33462309       0.48910115 </v>
   <v>      -0.12419896      -0.32688249      -0.43552045 </v>
   <v>      -0.21294850      -0.32863058       0.41122819 </v>
   <v>      -0.03590652       0.08954952      -0.46233577 </v>
   <v>      -0.00685688       0.10092230      -0.43007848 </v>
   <v>       0.18291702       0.13801888       0.42856127 </v>
   <v>       0.24056849       0.06866158       0.40432919 </v>
   <v>       0.22417813       0.05717920      -0.41412793 </v>
   <v>      -0.11125669       0.06256112       0.45892705 </v>
   <v>       0.23693697       0.11765974       0.49387027 </v>
   <v>       0.26125336       0.06963914       0.35311206 </v>
   <v>      -0.14045379       0.05221358       0.42718421 </v>
   <v>       0.26221366       0.10731457       0.45001015 </v>
   <v>      -0.19680081      -0.38402817       0.48878495 </v>
   <v>      -0.13740933      -0.38965605       0.49849244 </v>
   <v>      -0.05791322       0.11395414      -0.46300487 </v>
   <v>      -0.09573223       0.10164141       0.49693510 </v>
   <v>      -0.17375255      -0.40778846       0.49439763 </v>
   <v>      -0.26154494      -0.38898906       0.47978706 </v>
   <v>       0.26063130       0.15636676      -0.46728805 </v>
   <v>       0.24194006       0.16581748      -0.43364286 </v>
   <v>      -0.24363909      -0.40745178       0.48315420 </v>
   <v>      -0.00243429       0.16671067      -0.39356683 </v>
   <v>      -0.03908427       0.15440268      -0.42045741 </v>
   <v>       0.30859723       0.13261252       0.44725094 </v>
   <v>      -0.04094289       0.17194409       0.41857274 </v>
   <v>       0.32600607       0.12310402       0.41130478 </v>
   <v>      -0.12077286       0.12623097       0.49323082 </v>
   <v>      -0.19714623      -0.45452715       0.49489523 </v>
   <v>       0.30701586       0.18152972      -0.46885837 </v>
   <v>      -0.16877336       0.08318789      -0.43404490 </v>
   <v>      -0.12875493      -0.45418158       0.42093535 </v>
   <v>       0.33198290       0.16958936       0.48917476 </v>
   <v>      -0.26735320      -0.45411730       0.48182609 </v>
   <v>      -0.07191077       0.17867459       0.40344880 </v>
   <v>      -0.06102064       0.17363107      -0.41390764 </v>
   <v>      -0.15942189       0.11124716      -0.46785033 </v>
   <v>      -0.11047064       0.16180392       0.44926508 </v>
   <v>      -0.24370980      -0.47705801       0.48793892 </v>
   <v>      -0.14455473      -0.48156309       0.45675939 </v>
   <v>      -0.17683032      -0.48333578      -0.49885015 </v>
   <v>       0.32423706       0.21023207      -0.43562136 </v>
   <v>      -0.07266639       0.19879229       0.35258255 </v>
   <v>       0.38626741       0.13478453       0.47921655 </v>
   <v>      -0.33390161      -0.45576148      -0.43860327 </v>
   <v>      -0.31657773      -0.48239123       0.47599135 </v>
   <v>       0.38136439       0.19457997       0.48918448 </v>
   <v>      -0.26208794       0.48650664       0.48742903 </v>
   <v>      -0.18461559       0.13242500      -0.46952553 </v>
   <v>      -0.34621747      -0.48196162      -0.47650209 </v>
   <v>      -0.13574547       0.18292296       0.44651021 </v>
   <v>      -0.19538176       0.48180916      -0.45215958 </v>
   <v>       0.40473744       0.17113908       0.48315964 </v>
   <v>      -0.13550430       0.48337304       0.45370579 </v>
   <v>      -0.31252951       0.48415236       0.38661612 </v>
   <v>      -0.21883127       0.48028480      -0.41442443 </v>
   <v>      -0.11240641       0.48393039       0.41606497 </v>
   <v>      -0.33377626       0.48447958       0.42658876 </v>
   <v>      -0.21329973       0.12095105      -0.43627694 </v>
   <v>      -0.17270549       0.16931617       0.48843548 </v>
   <v>       0.38712045       0.25964016       0.49977368 </v>
   <v>      -0.12624410       0.20986107       0.41058261 </v>
   <v>       0.40518289       0.24136891       0.49547847 </v>
   <v>      -0.18639240       0.44699880      -0.45634800 </v>
   <v>      -0.15848478       0.44531616       0.49403927 </v>
   <v>      -0.39028970       0.48293377      -0.47329248 </v>
   <v>       0.45138006       0.19405172       0.48210825 </v>
   <v>       0.45291216       0.12842012      -0.43979657 </v>
   <v>      -0.37761562       0.44967913       0.43074581 </v>
   <v>      -0.41207093       0.48220947      -0.43326901 </v>
   <v>      -0.22285409       0.40932059       0.39646989 </v>
   <v>      -0.19769875       0.19370729       0.48842264 </v>
   <v>       0.45189674       0.26466188       0.49632043 </v>
   <v>      -0.26273530       0.13430655       0.49819554 </v>
   <v>       0.47955106       0.17303852       0.47549292 </v>
   <v>      -0.40616002       0.44625843       0.48326828 </v>
   <v>       0.47906600       0.14255121      -0.47773263 </v>
   <v>      -0.38019354       0.42650938       0.32137208 </v>
   <v>       0.47438030       0.24061296       0.48901181 </v>
   <v>      -0.21266621       0.41993261      -0.35009437 </v>
   <v>      -0.21118220       0.40965630      -0.40903314 </v>
   <v>      -0.15793944       0.40318496       0.48170524 </v>
   <v>      -0.13790165       0.25848037       0.47918452 </v>
   <v>      -0.39132701       0.41410884       0.37990564 </v>
   <v>      -0.24449001       0.17067458       0.49428556 </v>
   <v>      -0.20491188       0.38779827       0.37815298 </v>
   <v>      -0.37390197       0.40785101      -0.42903865 </v>
   <v>       0.45139242       0.33266660       0.42276555 </v>
   <v>      -0.17425491       0.24057061       0.48284559 </v>
   <v>      -0.11612212       0.40950571      -0.43459606 </v>
   <v>      -0.48742587       0.18922044       0.42595116 </v>
   <v>      -0.48709963       0.21109606       0.38646128 </v>
   <v>      -0.48589424       0.13347629      -0.47524997 </v>
   <v>      -0.20410728       0.37589644       0.31993727 </v>
   <v>       0.48063166       0.31379225      -0.49709345 </v>
   <v>      -0.18307324       0.37436675       0.42941081 </v>
   <v>      -0.13717059       0.38751172      -0.47445865 </v>
   <v>      -0.48919800       0.25862007       0.48869980 </v>
   <v>      -0.48512807       0.11216332      -0.43566315 </v>
   <v>      -0.22917164       0.37104593      -0.43122594 </v>
   <v>      -0.44823320       0.40360381       0.49595730 </v>
   <v>       0.47875618       0.34429563       0.45860497 </v>
   <v>      -0.41224519       0.37472962       0.39885010 </v>
   <v>      -0.41252494       0.38670755      -0.40704885 </v>
   <v>      -0.48687220       0.41098701       0.41796931 </v>
   <v>      -0.33568428       0.12540607       0.42147203 </v>
   <v>      -0.26779746       0.19408359       0.49517729 </v>
   <v>      -0.45273232       0.18000256       0.42927026 </v>
   <v>      -0.44929131       0.15451037       0.48123845 </v>
   <v>      -0.48296600       0.30822644      -0.41266213 </v>
   <v>      -0.19717222       0.26430083       0.48187448 </v>
   <v>      -0.44984740       0.37402842      -0.45443337 </v>
   <v>      -0.48455616       0.33014934      -0.45035173 </v>
   <v>      -0.48627598       0.38846039       0.45561263 </v>
   <v>      -0.42279518       0.37453700      -0.34825327 </v>
   <v>      -0.19213544       0.33049056       0.42589075 </v>
   <v>      -0.14613850       0.34341598      -0.47706773 </v>
   <v>      -0.24373837       0.24067393       0.48836297 </v>
   <v>      -0.34735068       0.14122677       0.45709842 </v>
   <v>      -0.43013535       0.20203578       0.32012648 </v>
   <v>      -0.31692081       0.17368007      -0.49860069 </v>
   <v>      -0.13222510       0.33131335      -0.43891595 </v>
   <v>      -0.41742423       0.20195372       0.37807784 </v>
   <v>      -0.21372191       0.30902597       0.38609417 </v>
   <v>      -0.17621551       0.31353106       0.47564720 </v>
   <v>      -0.41395492       0.10883122       0.41621109 </v>
   <v>      -0.40664823       0.15507449       0.49383166 </v>
   <v>      -0.41067886       0.22564133      -0.43189764 </v>
   <v>      -0.26174700       0.25908514       0.48808551 </v>
   <v>      -0.39148770       0.13203816       0.45382937 </v>
   <v>      -0.33333362       0.19224806      -0.45213779 </v>
   <v>      -0.31150057       0.21578418      -0.41439322 </v>
   <v>      -0.38987163       0.20791541      -0.40951586 </v>
   <v>      -0.37794464       0.21907161       0.39605438 </v>
   <v>      -0.37716049       0.18312811      -0.45655782 </v>
   <v>      -0.37799925       0.20972801      -0.35056097 </v>
  </varray>
 </structure>
 <varray name="primitive_index" >
  <v type="int" >        1 </v>
  <v type="int" >       85 </v>
  <v type="int" >       86 </v>
  <v type="int" >      135 </v>
  <v type="int" >       33 </v>
  <v type="int" >        2 </v>
  <v type="int" >      132 </v>
  <v type="int" >      147 </v>
  <v type="int" >      144 </v>
  <v type="int" >      142 </v>
  <v type="int" >      143 </v>
  <v type="int" >      131 </v>
  <v type="int" >      148 </v>
  <v type="int" >       28 </v>
  <v type="int" >       26 </v>
  <v type="int" >      141 </v>
  <v type="int" >       39 </v>
  <v type="int" >      170 </v>
  <v type="int" >      130 </v>
  <v type="int" >       51 </v>
  <v type="int" >      149 </v>
  <v type="int" >      169 </v>
  <v type="int" >       30 </v>
  <v type="int" >      140 </v>
  <v type="int" >       80 </v>
  <v type="int" >      105 </v>
  <v type="int" >       74 </v>
  <v type="int" >      109 </v>
  <v type="int" >       64 </v>
  <v type="int" >       34 </v>
  <v type="int" >       63 </v>
  <v type="int" >        5 </v>
  <v type="int" >       16 </v>
  <v type="int" >      168 </v>
  <v type="int" >       66 </v>
  <v type="int" >      134 </v>
  <v type="int" >       53 </v>
  <v type="int" >       52 </v>
  <v type="int" >      139 </v>
  <v type="int" >       81 </v>
  <v type="int" >       89 </v>
  <v type="int" >      106 </v>
  <v type="int" >      110 </v>
  <v type="int" >      167 </v>
  <v type="int" >      128 </v>
  <v type="int" >       29 </v>
  <v type="int" >       14 </v>
  <v type="int" >      133 </v>
  <v type="int" >       25 </v>
  <v type="int" >       17 </v>
  <v type="int" >       75 </v>
  <v type="int" >       65 </v>
  <v type="int" >       90 </v>
  <v type="int" >      166 </v>
  <v type="int" >       54 </v>
  <v type="int" >        6 </v>
  <v type="int" >      107 </v>
  <v type="int" >       99 </v>
  <v type="int" >       27 </v>
  <v type="int" >      136 </v>
  <v type="int" >      138 </v>
  <v type="int" >      153 </v>
  <v type="int" >       10 </v>
  <v type="int" >      165 </v>
  <v type="int" >       41 </v>
  <v type="int" >      100 </v>
  <v type="int" >       61 </v>
  <v type="int" >       79 </v>
  <v type="int" >      108 </v>
  <v type="int" >       49 </v>
  <v type="int" >       15 </v>
  <v type="int" >      137 </v>
  <v type="int" >      152 </v>
  <v type="int" >      164 </v>
  <v type="int" >       38 </v>
  <v type="int" >        7 </v>
  <v type="int" >      129 </v>
  <v type="int" >       97 </v>
  <v type="int" >       73 </v>
  <v type="int" >       62 </v>
  <v type="int" >      163 </v>
  <v type="int" >       87 </v>
  <v type="int" >       98 </v>
  <v type="int" >       91 </v>
  <v type="int" >      156 </v>
  <v type="int" >       40 </v>
  <v type="int" >       50 </v>
  <v type="int" >       12 </v>
  <v type="int" >       44 </v>
  <v type="int" >      120 </v>
  <v type="int" >      103 </v>
  <v type="int" >       11 </v>
  <v type="int" >      162 </v>
  <v type="int" >      175 </v>
  <v type="int" >       88 </v>
  <v type="int" >      172 </v>
  <v type="int" >      104 </v>
  <v type="int" >       92 </v>
  <v type="int" >       23 </v>
  <v type="int" >       42 </v>
  <v type="int" >        8 </v>
  <v type="int" >      119 </v>
  <v type="int" >       37 </v>
  <v type="int" >      127 </v>
  <v type="int" >       36 </v>
  <v type="int" >        4 </v>
  <v type="int" >      155 </v>
  <v type="int" >      171 </v>
  <v type="int" >      157 </v>
  <v type="int" >      176 </v>
  <v type="int" >      101 </v>
  <v type="int" >       47 </v>
  <v type="int" >      118 </v>
  <v type="int" >       45 </v>
  <v type="int" >       56 </v>
  <v type="int" >       95 </v>
  <v type="int" >      154 </v>
  <v type="int" >       35 </v>
  <v type="int" >      126 </v>
  <v type="int" >      117 </v>
  <v type="int" >      179 </v>
  <v type="int" >       57 </v>
  <v type="int" >      102 </v>
  <v type="int" >       67 </v>
  <v type="int" >       82 </v>
  <v type="int" >      111 </v>
  <v type="int" >        3 </v>
  <v type="int" >       77 </v>
  <v type="int" >      151 </v>
  <v type="int" >       76 </v>
  <v type="int" >       70 </v>
  <v type="int" >       18 </v>
  <v type="int" >       96 </v>
  <v type="int" >       32 </v>
  <v type="int" >      125 </v>
  <v type="int" >       24 </v>
  <v type="int" >      180 </v>
  <v type="int" >       55 </v>
  <v type="int" >      158 </v>
  <v type="int" >      112 </v>
  <v type="int" >      146 </v>
  <v type="int" >       13 </v>
  <v type="int" >       48 </v>
  <v type="int" >       68 </v>
  <v type="int" >      159 </v>
  <v type="int" >      115 </v>
  <v type="int" >       58 </v>
  <v type="int" >       83 </v>
  <v type="int" >       19 </v>
  <v type="int" >       20 </v>
  <v type="int" >      150 </v>
  <v type="int" >      124 </v>
  <v type="int" >      123 </v>
  <v type="int" >       43 </v>
  <v type="int" >       93 </v>
  <v type="int" >      173 </v>
  <v type="int" >      174 </v>
  <v type="int" >      116 </v>
  <v type="int" >       69 </v>
  <v type="int" >      113 </v>
  <v type="int" >      145 </v>
  <v type="int" >       94 </v>
  <v type="int" >      121 </v>
  <v type="int" >       59 </v>
  <v type="int" >      160 </v>
  <v type="int" >       31 </v>
  <v type="int" >       78 </v>
  <v type="int" >       22 </v>
  <v type="int" >      114 </v>
  <v type="int" >       21 </v>
  <v type="int" >      161 </v>
  <v type="int" >       72 </v>
  <v type="int" >        9 </v>
  <v type="int" >      122 </v>
  <v type="int" >      178 </v>
  <v type="int" >       46 </v>
  <v type="int" >       84 </v>
  <v type="int" >       60 </v>
  <v type="int" >      177 </v>
  <v type="int" >       71 </v>
 </varray>
 <kpoints>
  <generation param="listgenerated">
   <i name="divisions" type="int">      20 </i>
   <v>       0.00000000       0.00000000       0.00000000 </v>
   <v>       0.50000000       0.00000000       0.00000000 </v>
   <v>       0.33333333       0.33333333       0.00000000 </v>
   <v>       0.00000000       0.00000000       0.00000000 </v>
  </generation>
  <varray name="kpointlist" >
   <v>       0.00000000       0.00000000       0.00000000 </v>
   <v>       0.02631579       0.00000000       0.00000000 </v>
   <v>       0.05263158       0.00000000       0.00000000 </v>
   <v>       0.07894737       0.00000000       0.00000000 </v>
   <v>       0.10526316       0.00000000       0.00000000 </v>
   <v>       0.13157895       0.00000000       0.00000000 </v>
   <v>       0.15789474       0.00000000       0.00000000 </v>
   <v>       0.18421053       0.00000000       0.00000000 </v>
   <v>       0.21052632       0.00000000       0.00000000 </v>
   <v>       0.23684211       0.00000000       0.00000000 </v>
   <v>       0.26315789       0.00000000       0.00000000 </v>
   <v>       0.28947368       0.00000000       0.00000000 </v>
   <v>       0.31578947       0.00000000       0.00000000 </v>
   <v>       0.34210526       0.00000000       0.00000000 </v>
   <v>       0.36842105       0.00000000       0.00000000 </v>
   <v>       0.39473684       0.00000000       0.00000000 </v>
   <v>       0.42105263       0.00000000       0.00000000 </v>
   <v>       0.44736842       0.00000000       0.00000000 </v>
   <v>       0.47368421       0.00000000       0.00000000 </v>
   <v>       0.50000000       0.00000000       0.00000000 </v>
   <v>       0.50000000       0.00000000       0.00000000 </v>
   <v>       0.49122807       0.01754386       0.00000000 </v>
   <v>       0.48245614       0.03508772       0.00000000 </v>
   <v>       0.47368421       0.05263158       0.00000000 </v>
   <v>       0.46491228       0.07017544       0.00000000 </v>
   <v>       0.45614035       0.08771930       0.00000000 </v>
   <v>       0.44736842       0.10526316       0.00000000 </v>
   <v>       0.43859649       0.12280702       0.00000000 </v>
   <v>       0.42982456       0.14035088       0.00000000 </v>
   <v>       0.42105263       0.15789474       0.00000000 </v>
   <v>       0.41228070       0.17543860       0.00000000 </v>
   <v>       0.40350877       0.19298246       0.00000000 </v>
   <v>       0.39473684       0.21052632       0.00000000 </v>
   <v>       0.38596491       0.22807018       0.00000000 </v>
   <v>       0.37719298       0.24561404       0.00000000 </v>
   <v>       0.36842105       0.26315789       0.00000000 </v>
   <v>       0.35964912       0.28070175       0.00000000 </v>
   <v>       0.35087719       0.29824561       0.00000000 </v>
   <v>       0.34210526       0.31578947       0.00000000 </v>
   <v>       0.33333333       0.33333333       0.00000000 </v>
   <v>       0.33333333       0.33333333       0.00000000 </v>
   <v>       0.31578947       0.31578947       0.00000000 </v>
   <v>       0.29824561       0.29824561       0.00000000 </v>
   <v>       0.28070175       0.28070175       0.00000000 </v>
   <v>       0.26315789       0.26315789       0.00000000 </v>
   <v>       0.24561404       0.24561404       0.00000000 </v>
   <v>       0.22807018       0.22807018       0.00000000 </v>
   <v>       0.21052632       0.21052632       0.00000000 </v>
   <v>       0.19298246       0.19298246       0.00000000 </v>
   <v>       0.17543860       0.17543860       0.00000000 </v>
   <v>       0.15789474       0.15789474       0.00000000 </v>
   <v>       0.14035088       0.14035088       0.00000000 </v>
   <v>       0.12280702       0.12280702       0.00000000 </v>
   <v>       0.10526316       0.10526316       0.00000000 </v>
   <v>       0.08771930       0.08771930       0.00000000 </v>
   <v>       0.07017544       0.07017544       0.00000000 </v>
   <v>       0.05263158       0.05263158       0.00000000 </v>
   <v>       0.03508772       0.03508772       0.00000000 </v>
   <v>       0.01754386       0.01754386       0.00000000 </v>
   <v>       0.00000000       0.00000000       0.00000000 </v>
  </varray>
  <varray name="weights" >
   <v>       0.01666667 </v>
   <v>       0.01666667 </v>
   <v>       0.01666667 </v>
   <v>       0.01666667 </v>
   <v>       0.01666667 </v>
   <v>       0.01666667 </v>
   <v>       0.01666667 </v>
   <v>       0.01666667 </v>
   <v>       0.01666667 </v>
   <v>       0.01666667 </v>
   <v>       0.01666667 </v>
   <v>       0.01666667 </v>
   <v>       0.01666667 </v>
   <v>       0.01666667 </v>
   <v>       0.01666667 </v>
   <v>       0.01666667 </v>
   <v>       0.01666667 </v>
   <v>       0.01666667 </v>
   <v>       0.01666667 </v>
   <v>       0.01666667 </v>
   <v>       0.01666667 </v>
   <v>       0.01666667 </v>
   <v>       0.01666667 </v>
   <v>       0.01666667 </v>
   <v>       0.01666667 </v>
   <v>       0.01666667 </v>
   <v>       0.01666667 </v>
   <v>       0.01666667 </v>
   <v>       0.01666667 </v>
   <v>       0.01666667 </v>
   <v>       0.01666667 </v>
   <v>       0.01666667 </v>
   <v>       0.01666667 </v>
   <v>       0.01666667 </v>
   <v>       0.01666667 </v>
   <v>       0.01666667 </v>
   <v>       0.01666667 </v>
   <v>       0.01666667 </v>
   <v>       0.01666667 </v>
   <v>       0.01666667 </v>
   <v>       0.01666667 </v>
   <v>       0.01666667 </v>
   <v>       0.01666667 </v>
   <v>       0.01666667 </v>
   <v>       0.01666667 </v>
   <v>       0.01666667 </v>
   <v>       0.01666667 </v>
   <v>       0.01666667 </v>
   <v>       0.01666667 </v>
   <v>       0.01666667 </v>
   <v>       0.01666667 </v>
   <v>       0.01666667 </v>
   <v>       0.01666667 </v>
   <v>       0.01666667 </v>
   <v>       0.01666667 </v>
   <v>       0.01666667 </v>
   <v>       0.01666667 </v>
   <v>       0.01666667 </v>
   <v>       0.01666667 </v>
   <v>       0.01666667 </v>
  </varray>
 </kpoints>
 <parameters>
  <separator name="general" >
   <i type="string" name="SYSTEM">Simulation for cell shape cell volume r</i>
   <i type="logical" name="LCOMPAT"> F  </i>
  </separator>
  <separator name="electronic" >
   <i type="string" name="PREC">high</i>
   <i name="ENMAX">    500.00000000</i>
   <i name="ENAUG">    644.87300000</i>
   <i name="EDIFF">      0.00001000</i>
   <i type="int" name="IALGO">    38</i>
   <i type="int" name="IWAVPR">    10</i>
   <i type="int" name="NBANDS">   416</i>
   <i name="NELECT">    636.00000000</i>
   <i type="int" name="TURBO">     0</i>
   <i type="int" name="IRESTART">     0</i>
   <i type="int" name="NREBOOT">     0</i>
   <i type="int" name="NMIN">     0</i>
   <i name="EREF">      0.00000000</i>
   <separator name="electronic smearing" >
    <i type="int" name="ISMEAR">     0</i>
    <i name="SIGMA">      0.01000000</i>
    <i name="KSPACING">      0.50000000</i>
    <i type="logical" name="KGAMMA"> T  </i>
   </separator>
   <separator name="electronic projectors" >
    <i type="logical" name="LREAL"> T  </i>
    <v name="ROPT">     -0.00040000     -0.00040000     -0.00040000     -0.00040000</v>
    <i type="int" name="LMAXPAW">  -100</i>
    <i type="int" name="LMAXMIX">     2</i>
    <i type="logical" name="NLSPLINE"> F  </i>
   </separator>
   <separator name="electronic startup" >
    <i type="int" name="ISTART">     1</i>
    <i type="int" name="ICHARG">    11</i>
    <i type="int" name="INIWAV">     1</i>
   </separator>
   <separator name="electronic spin" >
    <i type="int" name="ISPIN">     1</i>
    <i type="logical" name="LNONCOLLINEAR"> F  </i>
    <v name="MAGMOM">      1.00000000      1.00000000      1.00000000      1.00000000      1.00000000      1.00000000      1.00000000      1.00000000      1.00000000      1.00000000      1.00000000      1.00000000      1.00000000      1.00000000      1.00000000      1.00000000      1.00000000      1.00000000      1.00000000      1.00000000
      1.00000000      1.00000000      1.00000000      1.00000000      1.00000000      1.00000000      1.00000000      1.00000000      1.00000000      1.00000000      1.00000000      1.00000000      1.00000000      1.00000000      1.00000000      1.00000000      1.00000000      1.00000000      1.00000000      1.00000000
      1.00000000      1.00000000      1.00000000      1.00000000      1.00000000      1.00000000      1.00000000      1.00000000      1.00000000      1.00000000      1.00000000      1.00000000      1.00000000      1.00000000      1.00000000      1.00000000      1.00000000      1.00000000      1.00000000      1.00000000
      1.00000000      1.00000000      1.00000000      1.00000000      1.00000000      1.00000000      1.00000000      1.00000000      1.00000000      1.00000000      1.00000000      1.00000000      1.00000000      1.00000000      1.00000000      1.00000000      1.00000000      1.00000000      1.00000000      1.00000000
      1.00000000      1.00000000      1.00000000      1.00000000      1.00000000      1.00000000      1.00000000      1.00000000      1.00000000      1.00000000      1.00000000      1.00000000      1.00000000      1.00000000      1.00000000      1.00000000      1.00000000      1.00000000      1.00000000      1.00000000
      1.00000000      1.00000000      1.00000000      1.00000000      1.00000000      1.00000000      1.00000000      1.00000000      1.00000000      1.00000000      1.00000000      1.00000000      1.00000000      1.00000000      1.00000000      1.00000000      1.00000000      1.00000000      1.00000000      1.00000000
      1.00000000      1.00000000      1.00000000      1.00000000      1.00000000      1.00000000      1.00000000      1.00000000      1.00000000      1.00000000      1.00000000      1.00000000      1.00000000      1.00000000      1.00000000      1.00000000      1.00000000      1.00000000      1.00000000      1.00000000
      1.00000000      1.00000000      1.00000000      1.00000000      1.00000000      1.00000000      1.00000000      1.00000000      1.00000000      1.00000000      1.00000000      1.00000000      1.00000000      1.00000000      1.00000000      1.00000000      1.00000000      1.00000000      1.00000000      1.00000000
      1.00000000      1.00000000      1.00000000      1.00000000      1.00000000      1.00000000      1.00000000      1.00000000      1.00000000      1.00000000      1.00000000      1.00000000      1.00000000      1.00000000      1.00000000      1.00000000      1.00000000      1.00000000      1.00000000      1.00000000
</v>
    <i name="NUPDOWN">     -1.00000000</i>
    <i type="logical" name="LSORBIT"> F  </i>
    <v name="SAXIS">      0.00000000      0.00000000      1.00000000</v>
    <i type="logical" name="LSPIRAL"> F  </i>
    <v name="QSPIRAL">      0.00000000      0.00000000      0.00000000</v>
    <i type="logical" name="LZEROZ"> F  </i>
   </separator>
   <separator name="electronic exchange-correlation" >
    <i type="logical" name="LASPH"> F  </i>
    <i type="logical" name="LMETAGGA"> F  </i>
   </separator>
   <separator name="electronic convergence" >
    <i type="int" name="NELM">   200</i>
    <i type="int" name="NELMDL">     0</i>
    <i type="int" name="NELMIN">     2</i>
    <i name="ENINI">    500.00000000</i>
    <separator name="electronic convergence detail" >
     <i type="logical" name="LDIAG"> T  </i>
     <i type="logical" name="LSUBROT"> F  </i>
     <i name="WEIMIN">      0.00000000</i>
     <i name="EBREAK">      0.00000001</i>
     <i name="DEPER">      0.30000000</i>
     <i type="int" name="NRMM">     4</i>
     <i name="TIME">      0.40000000</i>
    </separator>
   </separator>
   <separator name="electronic mixer" >
    <i name="AMIX">      0.40000000</i>
    <i name="BMIX">      1.00000000</i>
    <i name="AMIN">      0.10000000</i>
    <i name="AMIX_MAG">      1.60000000</i>
    <i name="BMIX_MAG">      1.00000000</i>
    <separator name="electronic mixer details" >
     <i type="int" name="IMIX">     4</i>
     <i type="logical" name="MIXFIRST"> F  </i>
     <i type="int" name="MAXMIX">   -45</i>
     <i name="WC">    100.00000000</i>
     <i type="int" name="INIMIX">     1</i>
     <i type="int" name="MIXPRE">     1</i>
     <i type="int" name="MREMOVE">     5</i>
    </separator>
   </separator>
   <separator name="electronic dipolcorrection" >
    <i type="logical" name="LDIPOL"> F  </i>
    <i type="logical" name="LMONO"> F  </i>
    <i type="int" name="IDIPOL">     0</i>
    <i name="EPSILON">      1.00000000</i>
    <v name="DIPOL">   -100.00000000   -100.00000000   -100.00000000</v>
    <i name="EFIELD">      0.00000000</i>
   </separator>
  </separator>
  <separator name="grids" >
   <i type="int" name="NGX">   252</i>
   <i type="int" name="NGY">   252</i>
   <i type="int" name="NGZ">   150</i>
   <i type="int" name="NGXF">   384</i>
   <i type="int" name="NGYF">   384</i>
   <i type="int" name="NGZF">   224</i>
   <i type="logical" name="ADDGRID"> F  </i>
  </separator>
  <separator name="ionic" >
   <i type="int" name="NSW">     0</i>
   <i type="int" name="IBRION">    -1</i>
   <i type="int" name="MDALGO">     0</i>
   <i type="int" name="ISIF">     2</i>
   <i name="PSTRESS">      0.00000000</i>
   <i name="EDIFFG">     -0.01000000</i>
   <i type="int" name="NFREE">     0</i>
   <i name="POTIM">      0.30000000</i>
   <i name="SMASS">     -3.00000000</i>
   <i name="SCALEE">      1.00000000</i>
  </separator>
  <separator name="ionic md" >
   <i name="TEBEG">      0.00010000</i>
   <i name="TEEND">      0.00010000</i>
   <i type="int" name="NBLOCK">     1</i>
   <i type="int" name="KBLOCK">     1</i>
   <i type="int" name="NPACO">   256</i>
   <i name="APACO">     16.00000000</i>
  </separator>
  <separator name="symmetry" >
   <i type="int" name="ISYM">     2</i>
   <i name="SYMPREC">      0.00001000</i>
  </separator>
  <separator name="dos" >
   <i type="int" name="LORBIT">     0</i>
   <v name="RWIGS">     -1.00000000     -1.00000000     -1.00000000     -1.00000000</v>
   <i type="int" name="NEDOS">   301</i>
   <i name="EMIN">     10.00000000</i>
   <i name="EMAX">    -10.00000000</i>
   <i name="EFERMI">      0.00000000</i>
  </separator>
  <separator name="writing" >
   <i type="int" name="NWRITE">     0</i>
   <i type="logical" name="LWAVE"> F  </i>
   <i type="logical" name="LDOWNSAMPLE"> F  </i>
   <i type="logical" name="LCHARG"> F  </i>
   <i type="logical" name="LPARD"> F  </i>
   <i type="logical" name="LVTOT"> F  </i>
   <i type="logical" name="LVHAR"> F  </i>
   <i type="logical" name="LELF"> F  </i>
   <i type="logical" name="LOPTICS"> F  </i>
   <v name="STM">      0.00000000      0.00000000      0.00000000      0.00000000      0.00000000      0.00000000      0.00000000</v>
  </separator>
  <separator name="performance" >
   <i type="int" name="NPAR">    16</i>
   <i type="int" name="NSIM">     4</i>
   <i type="int" name="NBLK">    -1</i>
   <i type="logical" name="LPLANE"> T  </i>
   <i type="logical" name="LSCALAPACK"> T  </i>
   <i type="logical" name="LSCAAWARE"> F  </i>
   <i type="logical" name="LSCALU"> F  </i>
   <i type="logical" name="LASYNC"> F  </i>
   <i type="logical" name="LORBITALREAL"> F  </i>
  </separator>
  <separator name="miscellaneous" >
   <i type="int" name="IDIOT">     3</i>
   <i type="int" name="ISPECIAL">     0</i>
   <i type="logical" name="LMUSIC"> F  </i>
   <v name="POMASS">      1.00000000     16.00000000     14.00100000     12.01100000</v>
   <v name="DARWINR">      0.00000000      0.00000000      0.00000000      0.00000000</v>
   <v name="DARWINV">      1.00000000      1.00000000      1.00000000      1.00000000</v>
   <i type="logical" name="LCORR"> T  </i>
  </separator>
  <i type="logical" name="GGA_COMPAT"> T  </i>
  <i type="logical" name="LBERRY"> F  </i>
  <i type="int" name="ICORELEVEL">     0</i>
  <i type="logical" name="LDAU"> F  </i>
  <i type="int" name="I_CONSTRAINED_M">     0</i>
  <separator name="electronic exchange-correlation" >
   <i type="string" name="GGA">PE</i>
   <i type="int" name="VOSKOWN">     0</i>
   <i type="logical" name="LHFCALC"> F  </i>
   <i type="string" name="PRECFOCK"></i>
   <i type="logical" name="LSYMGRAD"> F  </i>
   <i type="logical" name="LHFONE"> F  </i>
   <i type="logical" name="LRHFCALC"> F  </i>
   <i type="logical" name="LTHOMAS"> F  </i>
   <i type="logical" name="LMODELHF"> F  </i>
   <i name="ENCUT4O">     -1.00000000</i>
   <i type="int" name="EXXOEP">     0</i>
   <i type="int" name="FOURORBIT">     0</i>
   <i name="AEXX">      0.00000000</i>
   <i name="HFALPHA">      0.00000000</i>
   <i name="MCALPHA">      0.00000000</i>
   <i name="ALDAX">      1.00000000</i>
   <i name="AGGAX">      1.00000000</i>
   <i name="ALDAC">      1.00000000</i>
   <i name="AGGAC">      1.00000000</i>
   <i type="int" name="NKREDX">     1</i>
   <i type="int" name="NKREDY">     1</i>
   <i type="int" name="NKREDZ">     1</i>
   <i type="logical" name="SHIFTRED"> F  </i>
   <i type="logical" name="ODDONLY"> F  </i>
   <i type="logical" name="EVENONLY"> F  </i>
   <i type="int" name="LMAXFOCK">     0</i>
   <i type="int" name="NMAXFOCKAE">     0</i>
   <i type="logical" name="LFOCKAEDFT"> F  </i>
   <i name="HFSCREEN">      0.00000000</i>
   <i name="HFSCREENC">      0.00000000</i>
   <i type="int" name="NBANDSGWLOW">     0</i>
  </separator>
  <separator name="vdW DFT" >
   <i type="logical" name="LUSE_VDW"> F  </i>
   <i name="Zab_VDW">     -0.84910000</i>
   <i name="PARAM1">      0.12340000</i>
   <i name="PARAM2">      1.00000000</i>
   <i name="PARAM3">      0.00000000</i>
  </separator>
  <separator name="model GW" >
   <i type="int" name="MODEL_GW">     0</i>
   <i name="MODEL_EPS0">     69.03746151</i>
   <i name="MODEL_ALPHA">      1.00000000</i>
  </separator>
  <separator name="linear response parameters" >
   <i type="logical" name="LEPSILON"> F  </i>
   <i type="logical" name="LRPA"> F  </i>
   <i type="logical" name="LNABLA"> F  </i>
   <i type="logical" name="LVEL"> F  </i>
   <i type="int" name="KINTER">     0</i>
   <i name="CSHIFT">      0.10000000</i>
   <i name="OMEGAMAX">     -1.00000000</i>
   <i name="DEG_THRESHOLD">      0.00200000</i>
   <i name="RTIME">     -0.10000000</i>
   <i name="WPLASMAI">      0.00000000</i>
   <v name="DFIELD">      0.00000000      0.00000000      0.00000000</v>
   <v name="WPLASMA">      0.00000000      0.00000000      0.00000000      0.00000000      0.00000000      0.00000000      0.00000000      0.00000000      0.00000000</v>
  </separator>
  <separator name="orbital magnetization" >
   <i type="logical" name="NUCIND"> F  </i>
   <v name="MAGPOS">      0.00000000      0.00000000      0.00000000</v>
   <i type="logical" name="LNICSALL"> T  </i>
   <i type="logical" name="ORBITALMAG"> F  </i>
   <i type="logical" name="LMAGBLOCH"> F  </i>
   <i type="logical" name="LCHIMAG"> F  </i>
   <i type="logical" name="LGAUGE"> T  </i>
   <i type="int" name="MAGATOM">     0</i>
   <v name="MAGDIPOL">      0.00000000      0.00000000      0.00000000</v>
   <v name="AVECCONST">      0.00000000      0.00000000      0.00000000</v>
  </separator>
  <separator name="response functions" >
   <i type="logical" name="LADDER"> F  </i>
   <i type="logical" name="LRPAFORCE"> F  </i>
   <i type="logical" name="LFXC"> F  </i>
   <i type="logical" name="LHARTREE"> T  </i>
   <i type="int" name="IBSE">     0</i>
   <v type="int" name="KPOINT">    -1     0     0     0</v>
   <i type="logical" name="LTCTE"> F  </i>
   <i type="logical" name="LTETE"> F  </i>
   <i type="logical" name="LTRIPLET"> F  </i>
   <i type="logical" name="LFXCEPS"> F  </i>
   <i type="logical" name="LFXHEG"> F  </i>
   <i type="int" name="NATURALO">     2</i>
   <i type="logical" name="L2ORDER"> F  </i>
   <i type="logical" name="LMP2LT"> F  </i>
   <i type="logical" name="LUSEW"> F  </i>
   <i name="ENCUTGW">     -2.00000000</i>
   <i name="ENCUTGWSOFT">     -2.00000000</i>
   <i name="ENCUTLF">     -1.00000000</i>
   <i type="int" name="LMAXMP2">    -1</i>
   <i name="SCISSOR">      0.00000000</i>
   <i type="int" name="NOMEGA">     0</i>
   <i type="int" name="NOMEGAR">     0</i>
   <i type="int" name="NBANDSGW">    -1</i>
   <i type="int" name="NBANDSO">    -1</i>
   <i type="int" name="NBANDSV">    -1</i>
   <i type="int" name="NELM">   200</i>
   <i type="int" name="NELMHF">     1</i>
   <i type="int" name="DIM">     3</i>
   <i type="int" name="ANTIRES">     0</i>
   <i name="OMEGAMAX">    -30.00000000</i>
   <i name="OMEGAMIN">    -30.00000000</i>
   <i name="OMEGATL">   -200.00000000</i>
   <i type="int" name="OMEGAGRID">   140</i>
   <i name="CSHIFT">     -0.10000000</i>
   <i type="logical" name="SELFENERGY"> F  </i>
   <i type="logical" name="LSPECTRAL"> F  </i>
   <i type="logical" name="LSPECTRALGW"> F  </i>
   <i type="logical" name="LSINGLES"> F  </i>
   <i type="logical" name="LFERMIGW"> F  </i>
   <i type="logical" name="ODDONLYGW"> F  </i>
   <i type="logical" name="EVENONLYGW"> F  </i>
   <i type="int" name="NKREDLFX">     1</i>
   <i type="int" name="NKREDLFY">     1</i>
   <i type="int" name="NKREDLFZ">     1</i>
   <i type="int" name="MAXMEM">  2800</i>
   <i type="int" name="TELESCOPE">     0</i>
   <i type="int" name="TAUPAR">     1</i>
   <i type="int" name="OMEGAPAR">    -1</i>
   <i name="LAMBDA">      1.00000000</i>
  </separator>
  <separator name="External order field" >
   <i name="OFIELD_KAPPA">      0.00000000</i>
   <v name="OFIELD_K">      0.00000000      0.00000000      0.00000000</v>
   <i name="OFIELD_Q6_NEAR">      0.00000000</i>
   <i name="OFIELD_Q6_FAR">      0.00000000</i>
   <i name="OFIELD_A">      0.00000000</i>
  </separator>
  <separator name="solvation model" >
   <i type="logical" name="LSOL"> F  </i>
  </separator>
 </parameters>
 <atominfo>
  <atoms>     180 </atoms>
  <types>       4 </types>
  <array name="atoms" >
   <dimension dim="1">ion</dimension>
   <field type="string">element</field>
   <field type="int">atomtype</field>
   <set>
    <rc><c>H </c><c>   1</c></rc>
    <rc><c>H </c><c>   1</c></rc>
    <rc><c>H </c><c>   1</c></rc>
    <rc><c>H </c><c>   1</c></rc>
    <rc><c>H </c><c>   1</c></rc>
    <rc><c>H </c><c>   1</c></rc>
    <rc><c>H </c><c>   1</c></rc>
    <rc><c>H </c><c>   1</c></rc>
    <rc><c>H </c><c>   1</c></rc>
    <rc><c>H </c><c>   1</c></rc>
    <rc><c>H </c><c>   1</c></rc>
    <rc><c>H </c><c>   1</c></rc>
    <rc><c>H </c><c>   1</c></rc>
    <rc><c>H </c><c>   1</c></rc>
    <rc><c>H </c><c>   1</c></rc>
    <rc><c>H </c><c>   1</c></rc>
    <rc><c>H </c><c>   1</c></rc>
    <rc><c>H </c><c>   1</c></rc>
    <rc><c>H </c><c>   1</c></rc>
    <rc><c>H </c><c>   1</c></rc>
    <rc><c>H </c><c>   1</c></rc>
    <rc><c>H </c><c>   1</c></rc>
    <rc><c>H </c><c>   1</c></rc>
    <rc><c>H </c><c>   1</c></rc>
    <rc><c>H </c><c>   1</c></rc>
    <rc><c>H </c><c>   1</c></rc>
    <rc><c>H </c><c>   1</c></rc>
    <rc><c>H </c><c>   1</c></rc>
    <rc><c>H </c><c>   1</c></rc>
    <rc><c>H </c><c>   1</c></rc>
    <rc><c>H </c><c>   1</c></rc>
    <rc><c>H </c><c>   1</c></rc>
    <rc><c>H </c><c>   1</c></rc>
    <rc><c>H </c><c>   1</c></rc>
    <rc><c>H </c><c>   1</c></rc>
    <rc><c>H </c><c>   1</c></rc>
    <rc><c>H </c><c>   1</c></rc>
    <rc><c>H </c><c>   1</c></rc>
    <rc><c>H </c><c>   1</c></rc>
    <rc><c>H </c><c>   1</c></rc>
    <rc><c>H </c><c>   1</c></rc>
    <rc><c>H </c><c>   1</c></rc>
    <rc><c>H </c><c>   1</c></rc>
    <rc><c>H </c><c>   1</c></rc>
    <rc><c>H </c><c>   1</c></rc>
    <rc><c>H </c><c>   1</c></rc>
    <rc><c>H </c><c>   1</c></rc>
    <rc><c>H </c><c>   1</c></rc>
    <rc><c>O </c><c>   2</c></rc>
    <rc><c>O </c><c>   2</c></rc>
    <rc><c>O </c><c>   2</c></rc>
    <rc><c>O </c><c>   2</c></rc>
    <rc><c>O </c><c>   2</c></rc>
    <rc><c>O </c><c>   2</c></rc>
    <rc><c>O </c><c>   2</c></rc>
    <rc><c>O </c><c>   2</c></rc>
    <rc><c>O </c><c>   2</c></rc>
    <rc><c>O </c><c>   2</c></rc>
    <rc><c>O </c><c>   2</c></rc>
    <rc><c>O </c><c>   2</c></rc>
    <rc><c>O </c><c>   2</c></rc>
    <rc><c>O </c><c>   2</c></rc>
    <rc><c>O </c><c>   2</c></rc>
    <rc><c>O </c><c>   2</c></rc>
    <rc><c>O </c><c>   2</c></rc>
    <rc><c>O </c><c>   2</c></rc>
    <rc><c>O </c><c>   2</c></rc>
    <rc><c>O </c><c>   2</c></rc>
    <rc><c>O </c><c>   2</c></rc>
    <rc><c>O </c><c>   2</c></rc>
    <rc><c>O </c><c>   2</c></rc>
    <rc><c>O </c><c>   2</c></rc>
    <rc><c>N </c><c>   3</c></rc>
    <rc><c>N </c><c>   3</c></rc>
    <rc><c>N </c><c>   3</c></rc>
    <rc><c>N </c><c>   3</c></rc>
    <rc><c>N </c><c>   3</c></rc>
    <rc><c>N </c><c>   3</c></rc>
    <rc><c>N </c><c>   3</c></rc>
    <rc><c>N </c><c>   3</c></rc>
    <rc><c>N </c><c>   3</c></rc>
    <rc><c>N </c><c>   3</c></rc>
    <rc><c>N </c><c>   3</c></rc>
    <rc><c>N </c><c>   3</c></rc>
    <rc><c>C </c><c>   4</c></rc>
    <rc><c>C </c><c>   4</c></rc>
    <rc><c>C </c><c>   4</c></rc>
    <rc><c>C </c><c>   4</c></rc>
    <rc><c>C </c><c>   4</c></rc>
    <rc><c>C </c><c>   4</c></rc>
    <rc><c>C </c><c>   4</c></rc>
    <rc><c>C </c><c>   4</c></rc>
    <rc><c>C </c><c>   4</c></rc>
    <rc><c>C </c><c>   4</c></rc>
    <rc><c>C </c><c>   4</c></rc>
    <rc><c>C </c><c>   4</c></rc>
    <rc><c>C </c><c>   4</c></rc>
    <rc><c>C </c><c>   4</c></rc>
    <rc><c>C </c><c>   4</c></rc>
    <rc><c>C </c><c>   4</c></rc>
    <rc><c>C </c><c>   4</c></rc>
    <rc><c>C </c><c>   4</c></rc>
    <rc><c>C </c><c>   4</c></rc>
    <rc><c>C </c><c>   4</c></rc>
    <rc><c>C </c><c>   4</c></rc>
    <rc><c>C </c><c>   4</c></rc>
    <rc><c>C </c><c>   4</c></rc>
    <rc><c>C </c><c>   4</c></rc>
    <rc><c>C </c><c>   4</c></rc>
    <rc><c>C </c><c>   4</c></rc>
    <rc><c>C </c><c>   4</c></rc>
    <rc><c>C </c><c>   4</c></rc>
    <rc><c>C </c><c>   4</c></rc>
    <rc><c>C </c><c>   4</c></rc>
    <rc><c>C </c><c>   4</c></rc>
    <rc><c>C </c><c>   4</c></rc>
    <rc><c>C </c><c>   4</c></rc>
    <rc><c>C </c><c>   4</c></rc>
    <rc><c>C </c><c>   4</c></rc>
    <rc><c>C </c><c>   4</c></rc>
    <rc><c>C </c><c>   4</c></rc>
    <rc><c>C </c><c>   4</c></rc>
    <rc><c>C </c><c>   4</c></rc>
    <rc><c>C </c><c>   4</c></rc>
    <rc><c>C </c><c>   4</c></rc>
    <rc><c>C </c><c>   4</c></rc>
    <rc><c>C </c><c>   4</c></rc>
    <rc><c>C </c><c>   4</c></rc>
    <rc><c>C </c><c>   4</c></rc>
    <rc><c>C </c><c>   4</c></rc>
    <rc><c>C </c><c>   4</c></rc>
    <rc><c>C </c><c>   4</c></rc>
    <rc><c>C </c><c>   4</c></rc>
    <rc><c>C </c><c>   4</c></rc>
    <rc><c>C </c><c>   4</c></rc>
    <rc><c>C </c><c>   4</c></rc>
    <rc><c>C </c><c>   4</c></rc>
    <rc><c>C </c><c>   4</c></rc>
    <rc><c>C </c><c>   4</c></rc>
    <rc><c>C </c><c>   4</c></rc>
    <rc><c>C </c><c>   4</c></rc>
    <rc><c>C </c><c>   4</c></rc>
    <rc><c>C </c><c>   4</c></rc>
    <rc><c>C </c><c>   4</c></rc>
    <rc><c>C </c><c>   4</c></rc>
    <rc><c>C </c><c>   4</c></rc>
    <rc><c>C </c><c>   4</c></rc>
    <rc><c>C </c><c>   4</c></rc>
    <rc><c>C </c><c>   4</c></rc>
    <rc><c>C </c><c>   4</c></rc>
    <rc><c>C </c><c>   4</c></rc>
    <rc><c>C </c><c>   4</c></rc>
    <rc><c>C </c><c>   4</c></rc>
    <rc><c>C </c><c>   4</c></rc>
    <rc><c>C </c><c>   4</c></rc>
    <rc><c>C </c><c>   4</c></rc>
    <rc><c>C </c><c>   4</c></rc>
    <rc><c>C </c><c>   4</c></rc>
    <rc><c>C </c><c>   4</c></rc>
    <rc><c>C </c><c>   4</c></rc>
    <rc><c>C </c><c>   4</c></rc>
    <rc><c>C </c><c>   4</c></rc>
    <rc><c>C </c><c>   4</c></rc>
    <rc><c>C </c><c>   4</c></rc>
    <rc><c>C </c><c>   4</c></rc>
    <rc><c>C </c><c>   4</c></rc>
    <rc><c>C </c><c>   4</c></rc>
    <rc><c>C </c><c>   4</c></rc>
    <rc><c>C </c><c>   4</c></rc>
    <rc><c>C </c><c>   4</c></rc>
    <rc><c>C </c><c>   4</c></rc>
    <rc><c>C </c><c>   4</c></rc>
    <rc><c>C </c><c>   4</c></rc>
    <rc><c>C </c><c>   4</c></rc>
    <rc><c>C </c><c>   4</c></rc>
    <rc><c>C </c><c>   4</c></rc>
    <rc><c>C </c><c>   4</c></rc>
    <rc><c>C </c><c>   4</c></rc>
    <rc><c>C </c><c>   4</c></rc>
    <rc><c>C </c><c>   4</c></rc>
   </set>
  </array>
  <array name="atomtypes" >
   <dimension dim="1">type</dimension>
   <field type="int">atomspertype</field>
   <field type="string">element</field>
   <field>mass</field>
   <field>valence</field>
   <field type="string">pseudopotential</field>
   <set>
    <rc><c>  48</c><c>H </c><c>      1.00000000</c><c>      1.00000000</c><c>  PAW_PBE H 15Jun2001                   </c></rc>
    <rc><c>  24</c><c>O </c><c>     16.00000000</c><c>      6.00000000</c><c>  PAW_PBE O 08Apr2002                   </c></rc>
    <rc><c>  12</c><c>N </c><c>     14.00100000</c><c>      5.00000000</c><c>  PAW_PBE N 08Apr2002                   </c></rc>
    <rc><c>  96</c><c>C </c><c>     12.01100000</c><c>      4.00000000</c><c>  PAW_PBE C 08Apr2002                   </c></rc>
   </set>
  </array>
 </atominfo>
 <structure name="initialpos" >
  <crystal>
   <varray name="basis" >
    <v>      34.59039092      -0.00589627       0.00000000 </v>
    <v>     -17.28982622      29.94079688       0.00000000 </v>
    <v>       0.00000000       0.00000000      20.00000000 </v>
   </varray>
   <i name="volume">  20711.23845372 </i>
   <varray name="rec_basis" >
    <v>       0.02891261       0.01669608       0.00000000 </v>
    <v>       0.00000569       0.03340253       0.00000000 </v>
    <v>       0.00000000       0.00000000       0.05000000 </v>
   </varray>
  </crystal>
  <varray name="positions" >
   <v>       0.98950298       0.89680410       0.42925133 </v>
   <v>       0.94500237       0.81437985       0.42890548 </v>
   <v>       0.86209835       0.25848037       0.47918452 </v>
   <v>       0.87375590       0.20986107       0.41058261 </v>
   <v>       0.89779880       0.00807724       0.42795969 </v>
   <v>       0.85954621       0.05221358       0.42718421 </v>
   <v>       0.87124507       0.54581842       0.42093535 </v>
   <v>       0.88759359       0.48393039       0.41606497 </v>
   <v>       0.73825300       0.25908514       0.48808551 </v>
   <v>       0.73845506       0.61101094       0.47978706 </v>
   <v>       0.73791206       0.48650664       0.48742903 </v>
   <v>       0.38626741       0.13478453       0.47921655 </v>
   <v>       0.51080200       0.25862007       0.48869980 </v>
   <v>       0.78705150       0.67136942       0.41122819 </v>
   <v>       0.32600607       0.12310402       0.41130478 </v>
   <v>       0.10055076       0.10014403       0.42934500 </v>
   <v>       0.18291702       0.13801888       0.42856127 </v>
   <v>       0.45139242       0.33266660       0.42276555 </v>
   <v>       0.51312780       0.41098701       0.41796931 </v>
   <v>       0.66431572       0.12540607       0.42147203 </v>
   <v>       0.58604508       0.10883122       0.41621109 </v>
   <v>       0.78627809       0.30902597       0.38609417 </v>
   <v>       0.68747049       0.48415236       0.38661612 </v>
   <v>       0.51290037       0.21109606       0.38646128 </v>
   <v>       0.99314312       0.10092230       0.56992152 </v>
   <v>       0.91283500       0.96097974       0.49800073 </v>
   <v>       0.86259067       0.61034395       0.49849244 </v>
   <v>       0.89624101       0.90022001       0.56933123 </v>
   <v>       0.87580104       0.67311751       0.56447955 </v>
   <v>       0.91353011       0.75541948       0.56684100 </v>
   <v>       0.86777490       0.33131335       0.56108405 </v>
   <v>       0.88387788       0.40950571       0.56540394 </v>
   <v>       0.03649564       0.95938503       0.49884334 </v>
   <v>       0.03811776       0.08474337       0.49891126 </v>
   <v>       0.73726470       0.13430655       0.49819554 </v>
   <v>       0.38712045       0.25964016       0.49977368 </v>
   <v>       0.78670027       0.12095105       0.56372306 </v>
   <v>       0.83122664       0.08318789       0.56595510 </v>
   <v>       0.09741619       0.00380080       0.56992418 </v>
   <v>       0.32423706       0.21023207       0.56437864 </v>
   <v>       0.24194006       0.16581748       0.56635714 </v>
   <v>       0.78116873       0.48028480       0.58557557 </v>
   <v>       0.51703400       0.30822644       0.58733787 </v>
   <v>       0.66609839       0.54423852       0.56139673 </v>
   <v>       0.58792907       0.48220947       0.56673099 </v>
   <v>       0.68849943       0.21578418       0.58560678 </v>
   <v>       0.45291216       0.12842012       0.56020343 </v>
   <v>       0.51487193       0.11216332       0.56433685 </v>
   <v>       0.95905711       0.17194409       0.41857274 </v>
   <v>       0.92733361       0.19879229       0.35258255 </v>
   <v>       0.82467675       0.79447268       0.41948822 </v>
   <v>       0.20310058       0.03742774       0.41988914 </v>
   <v>       0.79810243       0.73596211       0.35330311 </v>
   <v>       0.26125336       0.06963914       0.35311206 </v>
   <v>       0.79589272       0.37589644       0.31993727 </v>
   <v>       0.77714591       0.40932059       0.39646989 </v>
   <v>       0.61980646       0.42650938       0.32137208 </v>
   <v>       0.58775481       0.37472962       0.39885010 </v>
   <v>       0.56986465       0.20203578       0.32012648 </v>
   <v>       0.62205536       0.21907161       0.39605438 </v>
   <v>       0.99756571       0.16671067       0.60643317 </v>
   <v>       0.93897936       0.17363107       0.58609236 </v>
   <v>       0.82291809       0.77348952       0.58601871 </v>
   <v>       0.83012188       0.83924614       0.60539931 </v>
   <v>       0.22417813       0.05717920       0.58587207 </v>
   <v>       0.15843765       0.99883948       0.60615522 </v>
   <v>       0.78733379       0.41993261       0.64990563 </v>
   <v>       0.77082836       0.37104593       0.56877406 </v>
   <v>       0.57720482       0.37453700       0.65174673 </v>
   <v>       0.62609803       0.40785101       0.57096135 </v>
   <v>       0.62200075       0.20972801       0.64943903 </v>
   <v>       0.58932114       0.22564133       0.56810236 </v>
   <v>       0.92808923       0.17867459       0.40344880 </v>
   <v>       0.81811040       0.75682539       0.40426652 </v>
   <v>       0.24056849       0.06866158       0.40432919 </v>
   <v>       0.79508812       0.38779827       0.37815298 </v>
   <v>       0.60867299       0.41410884       0.37990564 </v>
   <v>       0.58257577       0.20195372       0.37807784 </v>
   <v>       0.96091573       0.15440268       0.57954259 </v>
   <v>       0.84236647       0.81466166       0.57915089 </v>
   <v>       0.18299632       0.03550866       0.57939430 </v>
   <v>       0.78881780       0.40965630       0.59096686 </v>
   <v>       0.58747506       0.38670755       0.59295115 </v>
   <v>       0.61012837       0.20791541       0.59048414 </v>
   <v>       0.95972847       0.87993419       0.46048687 </v>
   <v>       0.93463256       0.83344524       0.46011901 </v>
   <v>       0.88952936       0.16180392       0.44926508 </v>
   <v>       0.86425453       0.18292296       0.44651021 </v>
   <v>       0.91033645       0.03768418       0.45951645 </v>
   <v>       0.88874331       0.06256112       0.45892705 </v>
   <v>       0.85544527       0.51843691       0.45675939 </v>
   <v>       0.86449570       0.48337304       0.45370579 </v>
   <v>       0.80282778       0.26430083       0.48187448 </v>
   <v>       0.75626163       0.24067393       0.48836297 </v>
   <v>       0.80230125       0.19370729       0.48842264 </v>
   <v>       0.82574509       0.24057061       0.48284559 </v>
   <v>       0.73264680       0.54588270       0.48182609 </v>
   <v>       0.75629020       0.52294199       0.48793892 </v>
   <v>       0.80319919       0.61597183       0.48878495 </v>
   <v>       0.75636091       0.59254822       0.48315420 </v>
   <v>       0.45138006       0.19405172       0.48210825 </v>
   <v>       0.47438030       0.24061296       0.48901181 </v>
   <v>       0.38136439       0.19457997       0.48918448 </v>
   <v>       0.40473744       0.17113908       0.48315964 </v>
   <v>       0.83501070       0.73517744       0.45008823 </v>
   <v>       0.81393597       0.68877497       0.44723570 </v>
   <v>       0.26221366       0.10731457       0.45001015 </v>
   <v>       0.30859723       0.13261252       0.44725094 </v>
   <v>       0.11746911       0.08730200       0.46059780 </v>
   <v>       0.16393272       0.10866887       0.45998795 </v>
   <v>       0.84206056       0.40318496       0.48170524 </v>
   <v>       0.81692676       0.37436675       0.42941081 </v>
   <v>       0.80786456       0.33049056       0.42589075 </v>
   <v>       0.82378449       0.31353106       0.47564720 </v>
   <v>       0.47875618       0.34429563       0.45860497 </v>
   <v>       0.51372402       0.38846039       0.45561263 </v>
   <v>       0.59383998       0.44625843       0.48326828 </v>
   <v>       0.62238438       0.44967913       0.43074581 </v>
   <v>       0.66622374       0.48447958       0.42658876 </v>
   <v>       0.68342227       0.51760877       0.47599135 </v>
   <v>       0.65264932       0.14122677       0.45709842 </v>
   <v>       0.60851230       0.13203816       0.45382937 </v>
   <v>       0.55070869       0.15451037       0.48123845 </v>
   <v>       0.54726768       0.18000256       0.42927026 </v>
   <v>       0.51257413       0.18922044       0.42595116 </v>
   <v>       0.47955106       0.17303852       0.47549292 </v>
   <v>       0.82729451       0.16931617       0.48843548 </v>
   <v>       0.82752043       0.66537691       0.48910115 </v>
   <v>       0.33198290       0.16958936       0.48917476 </v>
   <v>       0.97276146       0.02568673       0.49847121 </v>
   <v>       0.94926707       0.97888554       0.49824964 </v>
   <v>       0.97183760       0.95463749       0.49854156 </v>
   <v>       0.96409348       0.08954952       0.53766423 </v>
   <v>       0.94871782       0.05102914       0.49853922 </v>
   <v>       0.94638541       0.90523825       0.49885193 </v>
   <v>       0.94208678       0.11395414       0.53699513 </v>
   <v>       0.87922714       0.12623097       0.49323082 </v>
   <v>       0.90426777       0.10164141       0.49693510 </v>
   <v>       0.86432440       0.69034532       0.53126614 </v>
   <v>       0.88547736       0.73674483       0.53302562 </v>
   <v>       0.87055397       0.76046591       0.49409268 </v>
   <v>       0.89530548       0.81013572       0.49764233 </v>
   <v>       0.88300602       0.83593131       0.53705617 </v>
   <v>       0.90764157       0.88234567       0.53755422 </v>
   <v>       0.85386150       0.34341598       0.52293227 </v>
   <v>       0.86282941       0.38751172       0.52554135 </v>
   <v>       0.01861708       0.97793701       0.49870696 </v>
   <v>       0.04286177       0.02478231       0.49889819 </v>
   <v>       0.01958477       0.04829403       0.49872935 </v>
   <v>       0.73220254       0.19408359       0.49517729 </v>
   <v>       0.75550999       0.17067458       0.49428556 </v>
   <v>       0.80285377       0.54547285       0.49489523 </v>
   <v>       0.82624745       0.59221154       0.49439763 </v>
   <v>       0.45189674       0.26466188       0.49632043 </v>
   <v>       0.40518289       0.24136891       0.49547847 </v>
   <v>       0.82316968       0.51666422       0.50114985 </v>
   <v>       0.84151522       0.44531616       0.49403927 </v>
   <v>       0.48063166       0.31379225       0.50290655 </v>
   <v>       0.55176680       0.40360381       0.49595730 </v>
   <v>       0.68307919       0.17368007       0.50139931 </v>
   <v>       0.59335177       0.15507449       0.49383166 </v>
   <v>       0.81538441       0.13242500       0.53047447 </v>
   <v>       0.84057811       0.11124716       0.53214967 </v>
   <v>       0.30701586       0.18152972       0.53114163 </v>
   <v>       0.26063130       0.15636676       0.53271195 </v>
   <v>       0.23693697       0.11765974       0.49387027 </v>
   <v>       0.18730210       0.09273184       0.49751916 </v>
   <v>       0.16161048       0.05474209       0.53720593 </v>
   <v>       0.11521369       0.03298430       0.53793913 </v>
   <v>       0.09225019       0.04874249       0.49920755 </v>
   <v>       0.81360760       0.44699880       0.54365200 </v>
   <v>       0.80461824       0.48180916       0.54784042 </v>
   <v>       0.55015260       0.37402842       0.54556663 </v>
   <v>       0.51544384       0.33014934       0.54964827 </v>
   <v>       0.65378253       0.51803838       0.52349791 </v>
   <v>       0.60971030       0.48293377       0.52670752 </v>
   <v>       0.62283951       0.18312811       0.54344218 </v>
   <v>       0.66666638       0.19224806       0.54786221 </v>
   <v>       0.47906600       0.14255121       0.52226737 </v>
   <v>       0.51410576       0.13347629       0.52475003 </v>
  </varray>
 </structure>
 <calculation>
  <scstep>
   <time name="dav">  877.49  885.61</time>
   <time name="total">  877.83  885.97</time>
   <energy>
    <i name="alphaZ">     89.14109113 </i>
    <i name="ewald">  98328.14439241 </i>
    <i name="hartreedc">-121620.59375928 </i>
    <i name="XCdc">   2364.24705802 </i>
    <i name="pawpsdc">  58023.31280767 </i>
    <i name="pawaedc"> -58152.11159235 </i>
    <i name="eentropy">     -0.00000000 </i>
    <i name="bandstr">  -8575.00818235 </i>
    <i name="atom">  28276.56973846 </i>
    <i name="e_fr_energy">  -1266.29844627 </i>
    <i name="e_wo_entrp">  -1266.29844627 </i>
    <i name="e_0_energy">  -1266.29844627 </i>
   </energy>
  </scstep>
  <scstep>
   <time name="dav">  942.37  951.28</time>
   <time name="total">  942.38  951.30</time>
   <energy>
    <i name="e_fr_energy">  -1266.91254843 </i>
    <i name="e_wo_entrp">  -1266.91254843 </i>
    <i name="e_0_energy">  -1266.91254843 </i>
   </energy>
  </scstep>
  <scstep>
   <time name="dav"> 1110.54 1120.70</time>
   <time name="total"> 1110.55 1120.72</time>
   <energy>
    <i name="e_fr_energy">  -1266.93212052 </i>
    <i name="e_wo_entrp">  -1266.93212052 </i>
    <i name="e_0_energy">  -1266.93212052 </i>
   </energy>
  </scstep>
  <scstep>
   <time name="dav">  933.28  941.74</time>
   <time name="total">  933.30  941.76</time>
   <energy>
    <i name="e_fr_energy">  -1266.93239914 </i>
    <i name="e_wo_entrp">  -1266.93239914 </i>
    <i name="e_0_energy">  -1266.93239914 </i>
   </energy>
  </scstep>
  <scstep>
   <time name="dav">  876.89  885.11</time>
   <time name="total">  876.90  885.12</time>
   <energy>
    <i name="e_fr_energy">  -1266.93241508 </i>
    <i name="e_wo_entrp">  -1266.93241508 </i>
    <i name="e_0_energy">  -1266.93241508 </i>
   </energy>
  </scstep>
  <scstep>
   <time name="dav">  718.48  725.25</time>
   <time name="total">  718.49  725.26</time>
   <energy>
    <i name="alphaZ">     89.14109113 </i>
    <i name="ewald">  98328.14439241 </i>
    <i name="hartreedc">-121620.59375928 </i>
    <i name="XCdc">   2364.24705802 </i>
    <i name="pawpsdc">  58023.31280767 </i>
    <i name="pawaedc"> -58152.11159235 </i>
    <i name="eentropy">     -0.00000000 </i>
    <i name="bandstr">  -8575.64215172 </i>
    <i name="atom">  28276.56973846 </i>
    <i name="e_fr_energy">  -1266.93241564 </i>
    <i name="e_wo_entrp">  -1266.93241564 </i>
    <i name="e_0_energy">  -1266.93241564 </i>
   </energy>
  </scstep>
  <structure>
   <crystal>
    <varray name="basis" >
     <v>      34.59039092      -0.00589627       0.00000000 </v>
     <v>     -17.28982622      29.94079688       0.00000000 </v>
     <v>       0.00000000       0.00000000      20.00000000 </v>
    </varray>
    <i name="volume">  20711.23845372 </i>
    <varray name="rec_basis" >
     <v>       0.02891261       0.01669608       0.00000000 </v>
     <v>       0.00000569       0.03340253       0.00000000 </v>
     <v>       0.00000000       0.00000000       0.05000000 </v>
    </varray>
   </crystal>
   <varray name="positions" >
    <v>       0.98950298       0.89680410       0.42925133 </v>
    <v>       0.94500237       0.81437985       0.42890548 </v>
    <v>       0.86209835       0.25848037       0.47918452 </v>
    <v>       0.87375590       0.20986107       0.41058261 </v>
    <v>       0.89779880       0.00807724       0.42795969 </v>
    <v>       0.85954621       0.05221358       0.42718421 </v>
    <v>       0.87124507       0.54581842       0.42093535 </v>
    <v>       0.88759359       0.48393039       0.41606497 </v>
    <v>       0.73825300       0.25908514       0.48808551 </v>
    <v>       0.73845506       0.61101094       0.47978706 </v>
    <v>       0.73791206       0.48650664       0.48742903 </v>
    <v>       0.38626741       0.13478453       0.47921655 </v>
    <v>       0.51080200       0.25862007       0.48869980 </v>
    <v>       0.78705150       0.67136942       0.41122819 </v>
    <v>       0.32600607       0.12310402       0.41130478 </v>
    <v>       0.10055076       0.10014403       0.42934500 </v>
    <v>       0.18291702       0.13801888       0.42856127 </v>
    <v>       0.45139242       0.33266660       0.42276555 </v>
    <v>       0.51312780       0.41098701       0.41796931 </v>
    <v>       0.66431572       0.12540607       0.42147203 </v>
    <v>       0.58604508       0.10883122       0.41621109 </v>
    <v>       0.78627809       0.30902597       0.38609417 </v>
    <v>       0.68747049       0.48415236       0.38661612 </v>
    <v>       0.51290037       0.21109606       0.38646128 </v>
    <v>       0.99314312       0.10092230       0.56992152 </v>
    <v>       0.91283500       0.96097974       0.49800073 </v>
    <v>       0.86259067       0.61034395       0.49849244 </v>
    <v>       0.89624101       0.90022001       0.56933123 </v>
    <v>       0.87580104       0.67311751       0.56447955 </v>
    <v>       0.91353011       0.75541948       0.56684100 </v>
    <v>       0.86777490       0.33131335       0.56108405 </v>
    <v>       0.88387788       0.40950571       0.56540394 </v>
    <v>       0.03649564       0.95938503       0.49884334 </v>
    <v>       0.03811776       0.08474337       0.49891126 </v>
    <v>       0.73726470       0.13430655       0.49819554 </v>
    <v>       0.38712045       0.25964016       0.49977368 </v>
    <v>       0.78670027       0.12095105       0.56372306 </v>
    <v>       0.83122664       0.08318789       0.56595510 </v>
    <v>       0.09741619       0.00380080       0.56992418 </v>
    <v>       0.32423706       0.21023207       0.56437864 </v>
    <v>       0.24194006       0.16581748       0.56635714 </v>
    <v>       0.78116873       0.48028480       0.58557557 </v>
    <v>       0.51703400       0.30822644       0.58733787 </v>
    <v>       0.66609839       0.54423852       0.56139673 </v>
    <v>       0.58792907       0.48220947       0.56673099 </v>
    <v>       0.68849943       0.21578418       0.58560678 </v>
    <v>       0.45291216       0.12842012       0.56020343 </v>
    <v>       0.51487193       0.11216332       0.56433685 </v>
    <v>       0.95905711       0.17194409       0.41857274 </v>
    <v>       0.92733361       0.19879229       0.35258255 </v>
    <v>       0.82467675       0.79447268       0.41948822 </v>
    <v>       0.20310058       0.03742774       0.41988914 </v>
    <v>       0.79810243       0.73596211       0.35330311 </v>
    <v>       0.26125336       0.06963914       0.35311206 </v>
    <v>       0.79589272       0.37589644       0.31993727 </v>
    <v>       0.77714591       0.40932059       0.39646989 </v>
    <v>       0.61980646       0.42650938       0.32137208 </v>
    <v>       0.58775481       0.37472962       0.39885010 </v>
    <v>       0.56986465       0.20203578       0.32012648 </v>
    <v>       0.62205536       0.21907161       0.39605438 </v>
    <v>       0.99756571       0.16671067       0.60643317 </v>
    <v>       0.93897936       0.17363107       0.58609236 </v>
    <v>       0.82291809       0.77348952       0.58601871 </v>
    <v>       0.83012188       0.83924614       0.60539931 </v>
    <v>       0.22417813       0.05717920       0.58587207 </v>
    <v>       0.15843765       0.99883948       0.60615522 </v>
    <v>       0.78733379       0.41993261       0.64990563 </v>
    <v>       0.77082836       0.37104593       0.56877406 </v>
    <v>       0.57720482       0.37453700       0.65174673 </v>
    <v>       0.62609803       0.40785101       0.57096135 </v>
    <v>       0.62200075       0.20972801       0.64943903 </v>
    <v>       0.58932114       0.22564133       0.56810236 </v>
    <v>       0.92808923       0.17867459       0.40344880 </v>
    <v>       0.81811040       0.75682539       0.40426652 </v>
    <v>       0.24056849       0.06866158       0.40432919 </v>
    <v>       0.79508812       0.38779827       0.37815298 </v>
    <v>       0.60867299       0.41410884       0.37990564 </v>
    <v>       0.58257577       0.20195372       0.37807784 </v>
    <v>       0.96091573       0.15440268       0.57954259 </v>
    <v>       0.84236647       0.81466166       0.57915089 </v>
    <v>       0.18299632       0.03550866       0.57939430 </v>
    <v>       0.78881780       0.40965630       0.59096686 </v>
    <v>       0.58747506       0.38670755       0.59295115 </v>
    <v>       0.61012837       0.20791541       0.59048414 </v>
    <v>       0.95972847       0.87993419       0.46048687 </v>
    <v>       0.93463256       0.83344524       0.46011901 </v>
    <v>       0.88952936       0.16180392       0.44926508 </v>
    <v>       0.86425453       0.18292296       0.44651021 </v>
    <v>       0.91033645       0.03768418       0.45951645 </v>
    <v>       0.88874331       0.06256112       0.45892705 </v>
    <v>       0.85544527       0.51843691       0.45675939 </v>
    <v>       0.86449570       0.48337304       0.45370579 </v>
    <v>       0.80282778       0.26430083       0.48187448 </v>
    <v>       0.75626163       0.24067393       0.48836297 </v>
    <v>       0.80230125       0.19370729       0.48842264 </v>
    <v>       0.82574509       0.24057061       0.48284559 </v>
    <v>       0.73264680       0.54588270       0.48182609 </v>
    <v>       0.75629020       0.52294199       0.48793892 </v>
    <v>       0.80319919       0.61597183       0.48878495 </v>
    <v>       0.75636091       0.59254822       0.48315420 </v>
    <v>       0.45138006       0.19405172       0.48210825 </v>
    <v>       0.47438030       0.24061296       0.48901181 </v>
    <v>       0.38136439       0.19457997       0.48918448 </v>
    <v>       0.40473744       0.17113908       0.48315964 </v>
    <v>       0.83501070       0.73517744       0.45008823 </v>
    <v>       0.81393597       0.68877497       0.44723570 </v>
    <v>       0.26221366       0.10731457       0.45001015 </v>
    <v>       0.30859723       0.13261252       0.44725094 </v>
    <v>       0.11746911       0.08730200       0.46059780 </v>
    <v>       0.16393272       0.10866887       0.45998795 </v>
    <v>       0.84206056       0.40318496       0.48170524 </v>
    <v>       0.81692676       0.37436675       0.42941081 </v>
    <v>       0.80786456       0.33049056       0.42589075 </v>
    <v>       0.82378449       0.31353106       0.47564720 </v>
    <v>       0.47875618       0.34429563       0.45860497 </v>
    <v>       0.51372402       0.38846039       0.45561263 </v>
    <v>       0.59383998       0.44625843       0.48326828 </v>
    <v>       0.62238438       0.44967913       0.43074581 </v>
    <v>       0.66622374       0.48447958       0.42658876 </v>
    <v>       0.68342227       0.51760877       0.47599135 </v>
    <v>       0.65264932       0.14122677       0.45709842 </v>
    <v>       0.60851230       0.13203816       0.45382937 </v>
    <v>       0.55070869       0.15451037       0.48123845 </v>
    <v>       0.54726768       0.18000256       0.42927026 </v>
    <v>       0.51257413       0.18922044       0.42595116 </v>
    <v>       0.47955106       0.17303852       0.47549292 </v>
    <v>       0.82729451       0.16931617       0.48843548 </v>
    <v>       0.82752043       0.66537691       0.48910115 </v>
    <v>       0.33198290       0.16958936       0.48917476 </v>
    <v>       0.97276146       0.02568673       0.49847121 </v>
    <v>       0.94926707       0.97888554       0.49824964 </v>
    <v>       0.97183760       0.95463749       0.49854156 </v>
    <v>       0.96409348       0.08954952       0.53766423 </v>
    <v>       0.94871782       0.05102914       0.49853922 </v>
    <v>       0.94638541       0.90523825       0.49885193 </v>
    <v>       0.94208678       0.11395414       0.53699513 </v>
    <v>       0.87922714       0.12623097       0.49323082 </v>
    <v>       0.90426777       0.10164141       0.49693510 </v>
    <v>       0.86432440       0.69034532       0.53126614 </v>
    <v>       0.88547736       0.73674483       0.53302562 </v>
    <v>       0.87055397       0.76046591       0.49409268 </v>
    <v>       0.89530548       0.81013572       0.49764233 </v>
    <v>       0.88300602       0.83593131       0.53705617 </v>
    <v>       0.90764157       0.88234567       0.53755422 </v>
    <v>       0.85386150       0.34341598       0.52293227 </v>
    <v>       0.86282941       0.38751172       0.52554135 </v>
    <v>       0.01861708       0.97793701       0.49870696 </v>
    <v>       0.04286177       0.02478231       0.49889819 </v>
    <v>       0.01958477       0.04829403       0.49872935 </v>
    <v>       0.73220254       0.19408359       0.49517729 </v>
    <v>       0.75550999       0.17067458       0.49428556 </v>
    <v>       0.80285377       0.54547285       0.49489523 </v>
    <v>       0.82624745       0.59221154       0.49439763 </v>
    <v>       0.45189674       0.26466188       0.49632043 </v>
    <v>       0.40518289       0.24136891       0.49547847 </v>
    <v>       0.82316968       0.51666422       0.50114985 </v>
    <v>       0.84151522       0.44531616       0.49403927 </v>
    <v>       0.48063166       0.31379225       0.50290655 </v>
    <v>       0.55176680       0.40360381       0.49595730 </v>
    <v>       0.68307919       0.17368007       0.50139931 </v>
    <v>       0.59335177       0.15507449       0.49383166 </v>
    <v>       0.81538441       0.13242500       0.53047447 </v>
    <v>       0.84057811       0.11124716       0.53214967 </v>
    <v>       0.30701586       0.18152972       0.53114163 </v>
    <v>       0.26063130       0.15636676       0.53271195 </v>
    <v>       0.23693697       0.11765974       0.49387027 </v>
    <v>       0.18730210       0.09273184       0.49751916 </v>
    <v>       0.16161048       0.05474209       0.53720593 </v>
    <v>       0.11521369       0.03298430       0.53793913 </v>
    <v>       0.09225019       0.04874249       0.49920755 </v>
    <v>       0.81360760       0.44699880       0.54365200 </v>
    <v>       0.80461824       0.48180916       0.54784042 </v>
    <v>       0.55015260       0.37402842       0.54556663 </v>
    <v>       0.51544384       0.33014934       0.54964827 </v>
    <v>       0.65378253       0.51803838       0.52349791 </v>
    <v>       0.60971030       0.48293377       0.52670752 </v>
    <v>       0.62283951       0.18312811       0.54344218 </v>
    <v>       0.66666638       0.19224806       0.54786221 </v>
    <v>       0.47906600       0.14255121       0.52226737 </v>
    <v>       0.51410576       0.13347629       0.52475003 </v>
   </varray>
  </structure>
  <varray name="forces" >
   <v>      -0.00064402      -0.00022781       0.00052313 </v>
   <v>       0.00074511      -0.00130807      -0.00065188 </v>
   <v>      -0.00108776      -0.00018228       0.00086688 </v>
   <v>       0.00144465       0.00098906      -0.00133932 </v>
   <v>       0.00090848      -0.00055466      -0.00016445 </v>
   <v>       0.00085404      -0.00003458       0.00042185 </v>
   <v>      -0.00016566      -0.00019650      -0.00047194 </v>
   <v>       0.00041929      -0.00018961      -0.00007163 </v>
   <v>       0.00095835      -0.00082277      -0.00147502 </v>
   <v>       0.00186576      -0.00089638       0.00104586 </v>
   <v>      -0.00046879       0.00075584      -0.00009912 </v>
   <v>      -0.00024348      -0.00013568      -0.00009672 </v>
   <v>      -0.00117959      -0.00020359      -0.00075649 </v>
   <v>       0.00194285       0.00196435       0.00091282 </v>
   <v>      -0.00077364      -0.00152423      -0.00021924 </v>
   <v>      -0.00013021      -0.00025414      -0.00029548 </v>
   <v>       0.00159023       0.00247904      -0.00001477 </v>
   <v>       0.00176899       0.00150162       0.00040929 </v>
   <v>       0.00019213       0.00192795      -0.00177168 </v>
   <v>       0.00127753      -0.00063469      -0.00103862 </v>
   <v>      -0.00003865       0.00058209      -0.00008437 </v>
   <v>       0.00049638      -0.00058746      -0.00289381 </v>
   <v>      -0.00105372       0.00145352       0.00041476 </v>
   <v>      -0.00034278      -0.00045020      -0.00030025 </v>
   <v>      -0.00253981       0.00076295      -0.00079815 </v>
   <v>      -0.00076203       0.00067928       0.00162255 </v>
   <v>      -0.00059299      -0.00018709       0.00017498 </v>
   <v>       0.00166154       0.00082758      -0.00030135 </v>
   <v>      -0.00079097       0.00053711      -0.00029629 </v>
   <v>      -0.00136809       0.00014473       0.00092357 </v>
   <v>       0.00018613      -0.00089341       0.00141629 </v>
   <v>      -0.00092217       0.00049300      -0.00119279 </v>
   <v>       0.00011249       0.00073969       0.00104064 </v>
   <v>       0.00241927      -0.00092429       0.00026531 </v>
   <v>       0.00014724       0.00000013       0.00015923 </v>
   <v>       0.00069470      -0.00070849      -0.00111182 </v>
   <v>      -0.00065467       0.00001686      -0.00138022 </v>
   <v>      -0.00125833      -0.00088285      -0.00060052 </v>
   <v>       0.00059298      -0.00278998       0.00039105 </v>
   <v>      -0.00022435      -0.00050676      -0.00092112 </v>
   <v>       0.00083323      -0.00165609       0.00132050 </v>
   <v>       0.00035611      -0.00024588       0.00018547 </v>
   <v>       0.00016992       0.00027463      -0.00054294 </v>
   <v>      -0.00002163       0.00056989       0.00000471 </v>
   <v>       0.00096866      -0.00006715      -0.00142457 </v>
   <v>       0.00047221      -0.00022276      -0.00143794 </v>
   <v>       0.00057218       0.00043991      -0.00053418 </v>
   <v>       0.00039789      -0.00001404       0.00058266 </v>
   <v>      -0.00262888       0.00016708       0.00202009 </v>
   <v>      -0.00259087       0.00402232      -0.00468301 </v>
   <v>      -0.00069634       0.00093729       0.00060556 </v>
   <v>       0.00466327       0.00189123       0.00034420 </v>
   <v>       0.00075054      -0.00043701       0.00360475 </v>
   <v>      -0.00253314      -0.00051722       0.00352466 </v>
   <v>       0.00135034       0.00207051       0.00158927 </v>
   <v>       0.00371994      -0.00016030      -0.00031391 </v>
   <v>      -0.00172347       0.00035175      -0.00220401 </v>
   <v>       0.00081326      -0.00266378      -0.00026224 </v>
   <v>       0.00039083      -0.00000168       0.00439589 </v>
   <v>      -0.00300505      -0.00121033      -0.00242008 </v>
   <v>       0.00075892       0.00261924       0.00212218 </v>
   <v>      -0.00409919       0.00360050       0.00577582 </v>
   <v>      -0.00055965      -0.00297907       0.00018855 </v>
   <v>       0.00095911       0.00114933       0.00134028 </v>
   <v>      -0.00197120      -0.00104781       0.00064820 </v>
   <v>       0.00614279      -0.00408621      -0.00643868 </v>
   <v>       0.00074820      -0.00028668      -0.00448481 </v>
   <v>       0.00021805      -0.00135082      -0.00333183 </v>
   <v>      -0.00140709      -0.00130093      -0.00080486 </v>
   <v>      -0.00112874       0.00049865      -0.00183177 </v>
   <v>      -0.00042252      -0.00162533      -0.00294450 </v>
   <v>       0.00005731      -0.00209648      -0.00066100 </v>
   <v>       0.00205405      -0.00174616       0.00422713 </v>
   <v>       0.00140685      -0.00503713      -0.00359051 </v>
   <v>      -0.00369560      -0.00432762      -0.00471264 </v>
   <v>      -0.00477545       0.00284772      -0.00003202 </v>
   <v>       0.00123290       0.00215612       0.00028152 </v>
   <v>       0.00216406       0.00260129       0.00020352 </v>
   <v>       0.00351044      -0.00232054      -0.00359920 </v>
   <v>       0.00008836       0.00189660       0.00082264 </v>
   <v>       0.00072283      -0.00236911       0.00649410 </v>
   <v>       0.00207392       0.00294795       0.00493072 </v>
   <v>      -0.00048874      -0.00215838      -0.00133097 </v>
   <v>      -0.00226005       0.00312878       0.00335749 </v>
   <v>       0.00084322      -0.00055421       0.00184931 </v>
[...]
       <r>   -16.0184    21.9310   179.1171 </r>
       <r>   -15.9021     0.0000   180.0000 </r>
       <r>   -15.7858     0.0000   180.0000 </r>
       <r>   -15.6695     0.0112   180.0013 </r>
       <r>   -15.5532    19.5918   184.9784 </r>
       <r>   -15.4369    10.8602   187.2630 </r>
       <r>   -15.3206    26.1053   190.6359 </r>
       <r>   -15.2043     0.0868   192.0101 </r>
       <r>   -15.0881    53.2807   200.1962 </r>
       <r>   -14.9718    17.4376   204.0279 </r>
       <r>   -14.8555    17.1257   209.9916 </r>
       <r>   -14.7392     0.0000   210.0000 </r>
       <r>   -14.6229    17.4154   212.0253 </r>
       <r>   -14.5066     0.0000   216.0000 </r>
       <r>   -14.3903     0.0000   216.0000 </r>
       <r>   -14.2740     0.0000   216.0000 </r>
       <r>   -14.1577    34.3992   220.0004 </r>
       <r>   -14.0414    34.3957   226.0000 </r>
       <r>   -13.9251    23.1784   228.6955 </r>
       <r>   -13.8088    32.0731   233.7299 </r>
       <r>   -13.6925    18.9024   236.1982 </r>
       <r>   -13.5762     8.3190   238.9674 </r>
       <r>   -13.4599    31.8495   243.7039 </r>
       <r>   -13.3437     0.2272   244.0264 </r>
       <r>   -13.2274     6.9877   246.3126 </r>
       <r>   -13.1111    11.6806   249.7917 </r>
       <r>   -12.9948    52.1170   257.1942 </r>
       <r>   -12.8785    64.9298   268.6176 </r>
       <r>   -12.7622    33.3586   277.8794 </r>
       <r>   -12.6459    17.1983   282.0000 </r>
       <r>   -12.5296    58.6029   290.8151 </r>
       <r>   -12.4133    73.3480   302.9632 </r>
       <r>   -12.2970    34.4159   312.0023 </r>
       <r>   -12.1807    51.5936   324.0000 </r>
       <r>   -12.0644     0.0008   324.0001 </r>
       <r>   -11.9481     0.0000   326.0000 </r>
       <r>   -11.8318    51.5936   332.0000 </r>
       <r>   -11.7155    40.5333   336.7138 </r>
       <r>   -11.5992    31.0190   345.6073 </r>
       <r>   -11.4830    35.4069   352.1176 </r>
       <r>   -11.3667    68.6338   361.9817 </r>
       <r>   -11.2504    10.9513   363.2736 </r>
       <r>   -11.1341    44.7955   370.5428 </r>
       <r>   -11.0178     8.0532   374.9365 </r>
       <r>   -10.9015    28.1283   380.3711 </r>
       <r>   -10.7852    50.9634   391.9267 </r>
       <r>   -10.6689    17.1993   394.0002 </r>
       <r>   -10.5526    17.2118   400.0016 </r>
       <r>   -10.4363     0.0000   404.0000 </r>
       <r>   -10.3200     0.0000   404.0000 </r>
       <r>   -10.2037     0.0000   404.0000 </r>
       <r>   -10.0874     0.0000   404.0000 </r>
       <r>    -9.9711    29.5570   407.4373 </r>
       <r>    -9.8548    70.0716   416.7155 </r>
       <r>    -9.7385    23.7516   424.1622 </r>
       <r>    -9.6223    28.7716   431.3460 </r>
       <r>    -9.5060    12.8984   434.0000 </r>
       <r>    -9.3897    37.1891   438.3249 </r>
       <r>    -9.2734    51.5648   445.9967 </r>
       <r>    -9.1571    57.9988   455.0116 </r>
       <r>    -9.0408    51.5901   463.9996 </r>
       <r>    -8.9245    58.5869   472.8133 </r>
       <r>    -8.8082    49.8589   481.7983 </r>
       <r>    -8.6919     3.1529   484.0000 </r>
       <r>    -8.5756     1.2087   484.1406 </r>
       <r>    -8.4593    32.8653   491.8220 </r>
       <r>    -8.3430    17.0132   495.9785 </r>
       <r>    -8.2267    30.5872   499.5571 </r>
       <r>    -8.1104     0.0000   500.0000 </r>
       <r>    -7.9941     0.0000   500.0000 </r>
       <r>    -7.8779     0.0000   500.0000 </r>
       <r>    -7.7616     0.0007   500.0001 </r>
       <r>    -7.6453     0.0000   504.0000 </r>
       <r>    -7.5290    51.6055   510.0014 </r>
       <r>    -7.4127   112.1611   525.0436 </r>
       <r>    -7.2964    17.1979   536.0000 </r>
       <r>    -7.1801    48.9015   541.6869 </r>
       <r>    -7.0638    98.0363   553.4010 </r>
       <r>    -6.9475   105.6359   568.7181 </r>
       <r>    -6.8312    80.3611   579.3455 </r>
       <r>    -6.7149    22.1164   584.1387 </r>
       <r>    -6.5986    17.1979   590.0000 </r>
       <r>    -6.4823    51.5937   596.0000 </r>
       <r>    -6.3660     0.7629   600.0887 </r>
       <r>    -6.2497    26.5156   607.0836 </r>
       <r>    -6.1334    17.1978   616.0000 </r>
       <r>    -6.0172    35.8749   620.1720 </r>
       <r>    -5.9009    51.5933   630.0000 </r>
       <r>    -5.7846    51.5936   636.0000 </r>
       <r>    -5.6683     0.0000   636.0000 </r>
       <r>    -5.5520     0.0000   636.0000 </r>
       <r>    -5.4357     0.0000   636.0000 </r>
       <r>    -5.3194     0.0000   636.0000 </r>
       <r>    -5.2031     0.0000   636.0000 </r>
       <r>    -5.0868     0.0000   636.0000 </r>
       <r>    -4.9705     0.0000   636.0000 </r>
       <r>    -4.8542     0.0000   636.0000 </r>
       <r>    -4.7379     0.0000   636.0000 </r>
       <r>    -4.6216     0.0000   636.0000 </r>
       <r>    -4.5053     0.0000   636.0000 </r>
       <r>    -4.3890     0.0000   636.0000 </r>
       <r>    -4.2728     0.0000   636.0000 </r>
       <r>    -4.1565     0.0000   636.0000 </r>
       <r>    -4.0402     0.0000   636.0000 </r>
       <r>    -3.9239     0.0000   636.0000 </r>
       <r>    -3.8076     0.0000   636.0000 </r>
       <r>    -3.6913     0.0000   636.0000 </r>
       <r>    -3.5750     0.0000   636.0000 </r>
       <r>    -3.4587     0.0000   636.0000 </r>
       <r>    -3.3424    51.5936   642.0000 </r>
       <r>    -3.2261    51.5925   647.9999 </r>
       <r>    -3.1098     0.0000   648.0000 </r>
       <r>    -2.9935   103.1643   659.9973 </r>
       <r>    -2.8772     0.0000   660.0000 </r>
       <r>    -2.7609     0.0000   660.0000 </r>
       <r>    -2.6446     0.0000   660.0000 </r>
       <r>    -2.5283     0.0000   660.0000 </r>
       <r>    -2.4121     0.0000   660.0000 </r>
       <r>    -2.2958    34.6692   664.0318 </r>
       <r>    -2.1795    34.7667   670.0431 </r>
       <r>    -2.0632    34.3947   675.9999 </r>
       <r>    -1.9469     0.0000   676.0000 </r>
       <r>    -1.8306     0.0129   676.0015 </r>
       <r>    -1.7143     5.8263   678.6776 </r>
       <r>    -1.5980     0.0000   682.0000 </r>
       <r>    -1.4817    41.3109   687.9375 </r>
       <r>    -1.3654    30.4259   691.5383 </r>
       <r>    -1.2491     0.0000   696.0000 </r>
       <r>    -1.1328    56.6646   702.5897 </r>
       <r>    -1.0165    17.6451   708.0520 </r>
       <r>    -0.9002    30.9106   713.5947 </r>
       <r>    -0.7839     0.0000   714.0000 </r>
       <r>    -0.6676    61.1509   721.1115 </r>
       <r>    -0.5514     0.0000   724.0000 </r>
       <r>    -0.4351    17.1510   725.9945 </r>
       <r>    -0.3188    31.9171   729.7118 </r>
       <r>    -0.2025    14.9048   732.0000 </r>
       <r>    -0.0862    20.2567   734.3557 </r>
       <r>     0.0301    34.4136   740.0021 </r>
       <r>     0.1464    58.7790   747.9023 </r>
       <r>     0.2627    28.2549   751.9525 </r>
       <r>     0.3790    56.6340   760.8195 </r>
       <r>     0.4953    30.1042   765.5009 </r>
       <r>     0.6116    76.4093   778.0192 </r>
       <r>     0.7279    59.1314   787.8766 </r>
       <r>     0.8442    31.2575   797.4684 </r>
       <r>     0.9605    98.1670   811.6162 </r>
       <r>     1.0768    84.7522   827.1561 </r>
       <r>     1.1930     7.7390   832.0000 </r>
       <r>     1.3093     0.0000   832.0000 </r>
       <r>     1.4256     0.0000   832.0000 </r>
       <r>     1.5419     0.0000   832.0000 </r>
       <r>     1.6582     0.0000   832.0000 </r>
       <r>     1.7745     0.0000   832.0000 </r>
       <r>     1.8908     0.0000   832.0000 </r>
       <r>     2.0071     0.0000   832.0000 </r>
       <r>     2.1234     0.0000   832.0000 </r>
       <r>     2.2397     0.0000   832.0000 </r>
       <r>     2.3560     0.0000   832.0000 </r>
       <r>     2.4723     0.0000   832.0000 </r>
       <r>     2.5886     0.0000   832.0000 </r>
       <r>     2.7049     0.0000   832.0000 </r>
      </set>
     </set>
    </array>
   </total>
  </dos>
 </calculation>
 <structure name="finalpos" >
  <crystal>
   <varray name="basis" >
    <v>      34.59039092      -0.00589627       0.00000000 </v>
    <v>     -17.28982622      29.94079688       0.00000000 </v>
    <v>       0.00000000       0.00000000      20.00000000 </v>
   </varray>
   <i name="volume">  20711.23845372 </i>
   <varray name="rec_basis" >
    <v>       0.02891261       0.01669608       0.00000000 </v>
    <v>       0.00000569       0.03340253       0.00000000 </v>
    <v>       0.00000000       0.00000000       0.05000000 </v>
   </varray>
  </crystal>
  <varray name="positions" >
   <v>       0.98950298       0.89680410       0.42925133 </v>
   <v>       0.94500237       0.81437985       0.42890548 </v>
   <v>       0.86209835       0.25848037       0.47918452 </v>
   <v>       0.87375590       0.20986107       0.41058261 </v>
   <v>       0.89779880       0.00807724       0.42795969 </v>
   <v>       0.85954621       0.05221358       0.42718421 </v>
   <v>       0.87124507       0.54581842       0.42093535 </v>
   <v>       0.88759359       0.48393039       0.41606497 </v>
   <v>       0.73825300       0.25908514       0.48808551 </v>
   <v>       0.73845506       0.61101094       0.47978706 </v>
   <v>       0.73791206       0.48650664       0.48742903 </v>
   <v>       0.38626741       0.13478453       0.47921655 </v>
   <v>       0.51080200       0.25862007       0.48869980 </v>
   <v>       0.78705150       0.67136942       0.41122819 </v>
   <v>       0.32600607       0.12310402       0.41130478 </v>
   <v>       0.10055076       0.10014403       0.42934500 </v>
   <v>       0.18291702       0.13801888       0.42856127 </v>
   <v>       0.45139242       0.33266660       0.42276555 </v>
   <v>       0.51312780       0.41098701       0.41796931 </v>
   <v>       0.66431572       0.12540607       0.42147203 </v>
   <v>       0.58604508       0.10883122       0.41621109 </v>
   <v>       0.78627809       0.30902597       0.38609417 </v>
   <v>       0.68747049       0.48415236       0.38661612 </v>
   <v>       0.51290037       0.21109606       0.38646128 </v>
   <v>       0.99314312       0.10092230       0.56992152 </v>
   <v>       0.91283500       0.96097974       0.49800073 </v>
   <v>       0.86259067       0.61034395       0.49849244 </v>
   <v>       0.89624101       0.90022001       0.56933123 </v>
   <v>       0.87580104       0.67311751       0.56447955 </v>
   <v>       0.91353011       0.75541948       0.56684100 </v>
   <v>       0.86777490       0.33131335       0.56108405 </v>
   <v>       0.88387788       0.40950571       0.56540394 </v>
   <v>       0.03649564       0.95938503       0.49884334 </v>
   <v>       0.03811776       0.08474337       0.49891126 </v>
   <v>       0.73726470       0.13430655       0.49819554 </v>
   <v>       0.38712045       0.25964016       0.49977368 </v>
   <v>       0.78670027       0.12095105       0.56372306 </v>
   <v>       0.83122664       0.08318789       0.56595510 </v>
   <v>       0.09741619       0.00380080       0.56992418 </v>
   <v>       0.32423706       0.21023207       0.56437864 </v>
   <v>       0.24194006       0.16581748       0.56635714 </v>
   <v>       0.78116873       0.48028480       0.58557557 </v>
   <v>       0.51703400       0.30822644       0.58733787 </v>
   <v>       0.66609839       0.54423852       0.56139673 </v>
   <v>       0.58792907       0.48220947       0.56673099 </v>
   <v>       0.68849943       0.21578418       0.58560678 </v>
   <v>       0.45291216       0.12842012       0.56020343 </v>
   <v>       0.51487193       0.11216332       0.56433685 </v>
   <v>       0.95905711       0.17194409       0.41857274 </v>
   <v>       0.92733361       0.19879229       0.35258255 </v>
   <v>       0.82467675       0.79447268       0.41948822 </v>
   <v>       0.20310058       0.03742774       0.41988914 </v>
   <v>       0.79810243       0.73596211       0.35330311 </v>
   <v>       0.26125336       0.06963914       0.35311206 </v>
   <v>       0.79589272       0.37589644       0.31993727 </v>
   <v>       0.77714591       0.40932059       0.39646989 </v>
   <v>       0.61980646       0.42650938       0.32137208 </v>
   <v>       0.58775481       0.37472962       0.39885010 </v>
   <v>       0.56986465       0.20203578       0.32012648 </v>
   <v>       0.62205536       0.21907161       0.39605438 </v>
   <v>       0.99756571       0.16671067       0.60643317 </v>
   <v>       0.93897936       0.17363107       0.58609236 </v>
   <v>       0.82291809       0.77348952       0.58601871 </v>
   <v>       0.83012188       0.83924614       0.60539931 </v>
   <v>       0.22417813       0.05717920       0.58587207 </v>
   <v>       0.15843765       0.99883948       0.60615522 </v>
   <v>       0.78733379       0.41993261       0.64990563 </v>
   <v>       0.77082836       0.37104593       0.56877406 </v>
   <v>       0.57720482       0.37453700       0.65174673 </v>
   <v>       0.62609803       0.40785101       0.57096135 </v>
   <v>       0.62200075       0.20972801       0.64943903 </v>
   <v>       0.58932114       0.22564133       0.56810236 </v>
   <v>       0.92808923       0.17867459       0.40344880 </v>
   <v>       0.81811040       0.75682539       0.40426652 </v>
   <v>       0.24056849       0.06866158       0.40432919 </v>
   <v>       0.79508812       0.38779827       0.37815298 </v>
   <v>       0.60867299       0.41410884       0.37990564 </v>
   <v>       0.58257577       0.20195372       0.37807784 </v>
   <v>       0.96091573       0.15440268       0.57954259 </v>
   <v>       0.84236647       0.81466166       0.57915089 </v>
   <v>       0.18299632       0.03550866       0.57939430 </v>
   <v>       0.78881780       0.40965630       0.59096686 </v>
   <v>       0.58747506       0.38670755       0.59295115 </v>
   <v>       0.61012837       0.20791541       0.59048414 </v>
   <v>       0.95972847       0.87993419       0.46048687 </v>
   <v>       0.93463256       0.83344524       0.46011901 </v>
   <v>       0.88952936       0.16180392       0.44926508 </v>
   <v>       0.86425453       0.18292296       0.44651021 </v>
   <v>       0.91033645       0.03768418       0.45951645 </v>
   <v>       0.88874331       0.06256112       0.45892705 </v>
   <v>       0.85544527       0.51843691       0.45675939 </v>
   <v>       0.86449570       0.48337304       0.45370579 </v>
   <v>       0.80282778       0.26430083       0.48187448 </v>
   <v>       0.75626163       0.24067393       0.48836297 </v>
   <v>       0.80230125       0.19370729       0.48842264 </v>
   <v>       0.82574509       0.24057061       0.48284559 </v>
   <v>       0.73264680       0.54588270       0.48182609 </v>
   <v>       0.75629020       0.52294199       0.48793892 </v>
   <v>       0.80319919       0.61597183       0.48878495 </v>
   <v>       0.75636091       0.59254822       0.48315420 </v>
   <v>       0.45138006       0.19405172       0.48210825 </v>
   <v>       0.47438030       0.24061296       0.48901181 </v>
   <v>       0.38136439       0.19457997       0.48918448 </v>
   <v>       0.40473744       0.17113908       0.48315964 </v>
   <v>       0.83501070       0.73517744       0.45008823 </v>
   <v>       0.81393597       0.68877497       0.44723570 </v>
   <v>       0.26221366       0.10731457       0.45001015 </v>
   <v>       0.30859723       0.13261252       0.44725094 </v>
   <v>       0.11746911       0.08730200       0.46059780 </v>
   <v>       0.16393272       0.10866887       0.45998795 </v>
   <v>       0.84206056       0.40318496       0.48170524 </v>
   <v>       0.81692676       0.37436675       0.42941081 </v>
   <v>       0.80786456       0.33049056       0.42589075 </v>
   <v>       0.82378449       0.31353106       0.47564720 </v>
   <v>       0.47875618       0.34429563       0.45860497 </v>
   <v>       0.51372402       0.38846039       0.45561263 </v>
   <v>       0.59383998       0.44625843       0.48326828 </v>
   <v>       0.62238438       0.44967913       0.43074581 </v>
   <v>       0.66622374       0.48447958       0.42658876 </v>
   <v>       0.68342227       0.51760877       0.47599135 </v>
   <v>       0.65264932       0.14122677       0.45709842 </v>
   <v>       0.60851230       0.13203816       0.45382937 </v>
   <v>       0.55070869       0.15451037       0.48123845 </v>
   <v>       0.54726768       0.18000256       0.42927026 </v>
   <v>       0.51257413       0.18922044       0.42595116 </v>
   <v>       0.47955106       0.17303852       0.47549292 </v>
   <v>       0.82729451       0.16931617       0.48843548 </v>
   <v>       0.82752043       0.66537691       0.48910115 </v>
   <v>       0.33198290       0.16958936       0.48917476 </v>
   <v>       0.97276146       0.02568673       0.49847121 </v>
   <v>       0.94926707       0.97888554       0.49824964 </v>
   <v>       0.97183760       0.95463749       0.49854156 </v>
   <v>       0.96409348       0.08954952       0.53766423 </v>
   <v>       0.94871782       0.05102914       0.49853922 </v>
   <v>       0.94638541       0.90523825       0.49885193 </v>
   <v>       0.94208678       0.11395414       0.53699513 </v>
   <v>       0.87922714       0.12623097       0.49323082 </v>
   <v>       0.90426777       0.10164141       0.49693510 </v>
   <v>       0.86432440       0.69034532       0.53126614 </v>
   <v>       0.88547736       0.73674483       0.53302562 </v>
   <v>       0.87055397       0.76046591       0.49409268 </v>
   <v>       0.89530548       0.81013572       0.49764233 </v>
   <v>       0.88300602       0.83593131       0.53705617 </v>
   <v>       0.90764157       0.88234567       0.53755422 </v>
   <v>       0.85386150       0.34341598       0.52293227 </v>
   <v>       0.86282941       0.38751172       0.52554135 </v>
   <v>       0.01861708       0.97793701       0.49870696 </v>
   <v>       0.04286177       0.02478231       0.49889819 </v>
   <v>       0.01958477       0.04829403       0.49872935 </v>
   <v>       0.73220254       0.19408359       0.49517729 </v>
   <v>       0.75550999       0.17067458       0.49428556 </v>
   <v>       0.80285377       0.54547285       0.49489523 </v>
   <v>       0.82624745       0.59221154       0.49439763 </v>
   <v>       0.45189674       0.26466188       0.49632043 </v>
   <v>       0.40518289       0.24136891       0.49547847 </v>
   <v>       0.82316968       0.51666422       0.50114985 </v>
   <v>       0.84151522       0.44531616       0.49403927 </v>
   <v>       0.48063166       0.31379225       0.50290655 </v>
   <v>       0.55176680       0.40360381       0.49595730 </v>
   <v>       0.68307919       0.17368007       0.50139931 </v>
   <v>       0.59335177       0.15507449       0.49383166 </v>
   <v>       0.81538441       0.13242500       0.53047447 </v>
   <v>       0.84057811       0.11124716       0.53214967 </v>
   <v>       0.30701586       0.18152972       0.53114163 </v>
   <v>       0.26063130       0.15636676       0.53271195 </v>
   <v>       0.23693697       0.11765974       0.49387027 </v>
   <v>       0.18730210       0.09273184       0.49751916 </v>
   <v>       0.16161048       0.05474209       0.53720593 </v>
   <v>       0.11521369       0.03298430       0.53793913 </v>
   <v>       0.09225019       0.04874249       0.49920755 </v>
   <v>       0.81360760       0.44699880       0.54365200 </v>
   <v>       0.80461824       0.48180916       0.54784042 </v>
   <v>       0.55015260       0.37402842       0.54556663 </v>
   <v>       0.51544384       0.33014934       0.54964827 </v>
   <v>       0.65378253       0.51803838       0.52349791 </v>
   <v>       0.60971030       0.48293377       0.52670752 </v>
   <v>       0.62283951       0.18312811       0.54344218 </v>
   <v>       0.66666638       0.19224806       0.54786221 </v>
   <v>       0.47906600       0.14255121       0.52226737 </v>
   <v>       0.51410576       0.13347629       0.52475003 </v>
  </varray>
 </structure>
</modeling>
