<?xml version="1.0" encoding="ISO-8859-1"?>
<modeling>
 <generator>
  <i name="program" type="string">vasp </i>
  <i name="version" type="string">5.4.4.18Apr17-6-g9f103f2a35  </i>
  <i name="subversion" type="string">(build Jun 07 2020 16:50:00) complex            parallel </i>
  <i name="platform" type="string">LinuxIFC </i>
  <i name="date" type="string">2023 02 15 </i>
  <i name="time" type="string">00:26:20 </i>
 </generator>
 <incar>
  <i type="string" name="SYSTEM">Simulation for cell shape cell volume r</i>
  <i type="int" name="ISTART">     1</i>
  <i type="string" name="PREC">high</i>
  <i type="string" name="ALGO">48</i>
  <i type="int" name="ICHARG">    11</i>
  <i type="int" name="NELM">   200</i>
  <i type="int" name="IBRION">    -1</i>
  <i name="EDIFF">      0.00001000</i>
  <i name="EDIFFG">     -0.01000000</i>
  <i type="int" name="NSW">     0</i>
  <i type="int" name="ISIF">     2</i>
  <i name="ENCUT">    500.00000000</i>
  <i name="POTIM">      0.30000000</i>
  <i type="string" name="LREAL">A</i>
  <i type="int" name="ISMEAR">     0</i>
  <i name="SIGMA">      0.01000000</i>
  <i type="int" name="NWRITE">     0</i>
  <i type="logical" name="LWAVE"> F  </i>
  <i type="logical" name="LCHARG"> F  </i>
  <v type="int" name="KPOINT_BSE">    -1     0     0     0</v>
  <i type="int" name="NELM">   200</i>
  <i type="string" name="GGA">PE</i>
 </incar>
 <structure name="primitive_cell" >
  <crystal>
   <varray name="basis" >
    <v>      14.69449958      -0.00082958       0.00000000 </v>
    <v>      -7.34796822      12.72658734       0.00000000 </v>
    <v>       0.00000000       0.00000000      20.00000000 </v>
   </varray>
   <i name="volume">   3740.09473104 </i>
   <varray name="rec_basis" >
    <v>       0.06805489       0.03929295       0.00000000 </v>
    <v>       0.00000444       0.07857822       0.00000000 </v>
    <v>       0.00000000       0.00000000       0.05000000 </v>
   </varray>
  </crystal>
  <varray name="positions" >
   <v>      -0.45597520       0.08821614      -0.39252493 </v>
   <v>      -0.47599197       0.04808304      -0.44088107 </v>
   <v>       0.47145631      -0.05705744      -0.43974533 </v>
   <v>      -0.44700467       0.10601003       0.49935149 </v>
   <v>      -0.38844406       0.22311856       0.49996617 </v>
   <v>       0.44700467      -0.10601003      -0.49935149 </v>
   <v>      -0.47145631       0.05705744       0.43974533 </v>
   <v>      -0.44309760       0.27843847      -0.49987830 </v>
   <v>      -0.27845882       0.27847531      -0.49991569 </v>
   <v>       0.47115445       0.23554778       0.49951825 </v>
   <v>      -0.23556739       0.23562467       0.49944472 </v>
   <v>       0.47599197      -0.04808304       0.44088107 </v>
   <v>       0.38844406      -0.22311856      -0.49996617 </v>
   <v>      -0.38847282       0.38841375       0.49997361 </v>
   <v>      -0.22313379       0.38845447       0.49995634 </v>
   <v>       0.45597520      -0.08821614       0.39252493 </v>
   <v>      -0.27848723       0.44307477      -0.49990158 </v>
   <v>       0.23556739      -0.23562467      -0.49944472 </v>
   <v>      -0.47115445      -0.23554778      -0.49951825 </v>
   <v>       0.27845882      -0.27847531       0.49991569 </v>
   <v>       0.44309760      -0.27843847       0.49987830 </v>
   <v>      -0.45605111       0.45574879      -0.39251823 </v>
   <v>      -0.08823712       0.45597489      -0.39252967 </v>
   <v>      -0.44703549       0.44695655       0.49935703 </v>
   <v>      -0.10601711       0.44701862       0.49934640 </v>
   <v>      -0.47603105       0.47589288      -0.44087776 </v>
   <v>      -0.04809329       0.47599847      -0.44088346 </v>
   <v>      -0.23562289      -0.47118182       0.49947297 </v>
   <v>       0.22313379      -0.38845447      -0.49995634 </v>
   <v>       0.38847282      -0.38841375      -0.49997361 </v>
   <v>      -0.47144929       0.47148894       0.43974824 </v>
   <v>      -0.05705406       0.47146073       0.43974276 </v>
   <v>       0.27848723      -0.44307477       0.49990158 </v>
   <v>       0.47144929      -0.47148894      -0.43974824 </v>
   <v>       0.05705406      -0.47146073      -0.43974276 </v>
   <v>       0.10601711      -0.44701862      -0.49934640 </v>
   <v>       0.44703549      -0.44695655      -0.49935703 </v>
   <v>       0.47603105      -0.47589288       0.44087776 </v>
   <v>       0.04809329      -0.47599847       0.44088346 </v>
   <v>       0.23562289       0.47118182      -0.49947297 </v>
   <v>       0.45605111      -0.45574879       0.39251823 </v>
   <v>       0.08823712      -0.45597489       0.39252967 </v>
  </varray>
 </structure>
 <varray name="primitive_index" >
  <v type="int" >        1 </v>
  <v type="int" >       21 </v>
  <v type="int" >       16 </v>
  <v type="int" >       20 </v>
  <v type="int" >       19 </v>
  <v type="int" >       39 </v>
  <v type="int" >       13 </v>
  <v type="int" >       22 </v>
  <v type="int" >       23 </v>
  <v type="int" >        3 </v>
  <v type="int" >        2 </v>
  <v type="int" >       42 </v>
  <v type="int" >       29 </v>
  <v type="int" >       24 </v>
  <v type="int" >       26 </v>
  <v type="int" >       12 </v>
  <v type="int" >       25 </v>
  <v type="int" >        8 </v>
  <v type="int" >        9 </v>
  <v type="int" >       34 </v>
  <v type="int" >       30 </v>
  <v type="int" >        5 </v>
  <v type="int" >        4 </v>
  <v type="int" >       28 </v>
  <v type="int" >       27 </v>
  <v type="int" >       37 </v>
  <v type="int" >       35 </v>
  <v type="int" >        6 </v>
  <v type="int" >       33 </v>
  <v type="int" >       31 </v>
  <v type="int" >       18 </v>
  <v type="int" >       17 </v>
  <v type="int" >       32 </v>
  <v type="int" >       15 </v>
  <v type="int" >       14 </v>
  <v type="int" >       36 </v>
  <v type="int" >       38 </v>
  <v type="int" >       41 </v>
  <v type="int" >       40 </v>
  <v type="int" >        7 </v>
  <v type="int" >       11 </v>
  <v type="int" >       10 </v>
 </varray>
 <kpoints>
  <generation param="listgenerated">
   <i name="divisions" type="int">      20 </i>
   <v>       0.00000000       0.00000000       0.00000000 </v>
   <v>       0.50000000       0.00000000       0.00000000 </v>
   <v>       0.33333333       0.33333333       0.00000000 </v>
   <v>       0.00000000       0.00000000       0.00000000 </v>
  </generation>
  <varray name="kpointlist" >
   <v>       0.00000000       0.00000000       0.00000000 </v>
   <v>       0.02631579       0.00000000       0.00000000 </v>
   <v>       0.05263158       0.00000000       0.00000000 </v>
   <v>       0.07894737       0.00000000       0.00000000 </v>
   <v>       0.10526316       0.00000000       0.00000000 </v>
   <v>       0.13157895       0.00000000       0.00000000 </v>
   <v>       0.15789474       0.00000000       0.00000000 </v>
   <v>       0.18421053       0.00000000       0.00000000 </v>
   <v>       0.21052632       0.00000000       0.00000000 </v>
   <v>       0.23684211       0.00000000       0.00000000 </v>
   <v>       0.26315789       0.00000000       0.00000000 </v>
   <v>       0.28947368       0.00000000       0.00000000 </v>
   <v>       0.31578947       0.00000000       0.00000000 </v>
   <v>       0.34210526       0.00000000       0.00000000 </v>
   <v>       0.36842105       0.00000000       0.00000000 </v>
   <v>       0.39473684       0.00000000       0.00000000 </v>
   <v>       0.42105263       0.00000000       0.00000000 </v>
   <v>       0.44736842       0.00000000       0.00000000 </v>
   <v>       0.47368421       0.00000000       0.00000000 </v>
   <v>       0.50000000       0.00000000       0.00000000 </v>
   <v>       0.50000000       0.00000000       0.00000000 </v>
   <v>       0.49122807       0.01754386       0.00000000 </v>
   <v>       0.48245614       0.03508772       0.00000000 </v>
   <v>       0.47368421       0.05263158       0.00000000 </v>
   <v>       0.46491228       0.07017544       0.00000000 </v>
   <v>       0.45614035       0.08771930       0.00000000 </v>
   <v>       0.44736842       0.10526316       0.00000000 </v>
   <v>       0.43859649       0.12280702       0.00000000 </v>
   <v>       0.42982456       0.14035088       0.00000000 </v>
   <v>       0.42105263       0.15789474       0.00000000 </v>
   <v>       0.41228070       0.17543860       0.00000000 </v>
   <v>       0.40350877       0.19298246       0.00000000 </v>
   <v>       0.39473684       0.21052632       0.00000000 </v>
   <v>       0.38596491       0.22807018       0.00000000 </v>
   <v>       0.37719298       0.24561404       0.00000000 </v>
   <v>       0.36842105       0.26315789       0.00000000 </v>
   <v>       0.35964912       0.28070175       0.00000000 </v>
   <v>       0.35087719       0.29824561       0.00000000 </v>
   <v>       0.34210526       0.31578947       0.00000000 </v>
   <v>       0.33333333       0.33333333       0.00000000 </v>
   <v>       0.33333333       0.33333333       0.00000000 </v>
   <v>       0.31578947       0.31578947       0.00000000 </v>
   <v>       0.29824561       0.29824561       0.00000000 </v>
   <v>       0.28070175       0.28070175       0.00000000 </v>
   <v>       0.26315789       0.26315789       0.00000000 </v>
   <v>       0.24561404       0.24561404       0.00000000 </v>
   <v>       0.22807018       0.22807018       0.00000000 </v>
   <v>       0.21052632       0.21052632       0.00000000 </v>
   <v>       0.19298246       0.19298246       0.00000000 </v>
   <v>       0.17543860       0.17543860       0.00000000 </v>
   <v>       0.15789474       0.15789474       0.00000000 </v>
   <v>       0.14035088       0.14035088       0.00000000 </v>
   <v>       0.12280702       0.12280702       0.00000000 </v>
   <v>       0.10526316       0.10526316       0.00000000 </v>
   <v>       0.08771930       0.08771930       0.00000000 </v>
   <v>       0.07017544       0.07017544       0.00000000 </v>
   <v>       0.05263158       0.05263158       0.00000000 </v>
   <v>       0.03508772       0.03508772       0.00000000 </v>
   <v>       0.01754386       0.01754386       0.00000000 </v>
   <v>       0.00000000       0.00000000       0.00000000 </v>
  </varray>
  <varray name="weights" >
   <v>       0.01666667 </v>
   <v>       0.01666667 </v>
   <v>       0.01666667 </v>
   <v>       0.01666667 </v>
   <v>       0.01666667 </v>
   <v>       0.01666667 </v>
   <v>       0.01666667 </v>
   <v>       0.01666667 </v>
   <v>       0.01666667 </v>
   <v>       0.01666667 </v>
   <v>       0.01666667 </v>
   <v>       0.01666667 </v>
   <v>       0.01666667 </v>
   <v>       0.01666667 </v>
   <v>       0.01666667 </v>
   <v>       0.01666667 </v>
   <v>       0.01666667 </v>
   <v>       0.01666667 </v>
   <v>       0.01666667 </v>
   <v>       0.01666667 </v>
   <v>       0.01666667 </v>
   <v>       0.01666667 </v>
   <v>       0.01666667 </v>
   <v>       0.01666667 </v>
   <v>       0.01666667 </v>
   <v>       0.01666667 </v>
   <v>       0.01666667 </v>
   <v>       0.01666667 </v>
   <v>       0.01666667 </v>
   <v>       0.01666667 </v>
   <v>       0.01666667 </v>
   <v>       0.01666667 </v>
   <v>       0.01666667 </v>
   <v>       0.01666667 </v>
   <v>       0.01666667 </v>
   <v>       0.01666667 </v>
   <v>       0.01666667 </v>
   <v>       0.01666667 </v>
   <v>       0.01666667 </v>
   <v>       0.01666667 </v>
   <v>       0.01666667 </v>
   <v>       0.01666667 </v>
   <v>       0.01666667 </v>
   <v>       0.01666667 </v>
   <v>       0.01666667 </v>
   <v>       0.01666667 </v>
   <v>       0.01666667 </v>
   <v>       0.01666667 </v>
   <v>       0.01666667 </v>
   <v>       0.01666667 </v>
   <v>       0.01666667 </v>
   <v>       0.01666667 </v>
   <v>       0.01666667 </v>
   <v>       0.01666667 </v>
   <v>       0.01666667 </v>
   <v>       0.01666667 </v>
   <v>       0.01666667 </v>
   <v>       0.01666667 </v>
   <v>       0.01666667 </v>
   <v>       0.01666667 </v>
  </varray>
 </kpoints>
 <parameters>
  <separator name="general" >
   <i type="string" name="SYSTEM">Simulation for cell shape cell volume r</i>
   <i type="logical" name="LCOMPAT"> F  </i>
  </separator>
  <separator name="electronic" >
   <i type="string" name="PREC">high</i>
   <i name="ENMAX">    500.00000000</i>
   <i name="ENAUG">    644.87300000</i>
   <i name="EDIFF">      0.00001000</i>
   <i type="int" name="IALGO">    38</i>
   <i type="int" name="IWAVPR">    10</i>
   <i type="int" name="NBANDS">    96</i>
   <i name="NELECT">    138.00000000</i>
   <i type="int" name="TURBO">     0</i>
   <i type="int" name="IRESTART">     0</i>
   <i type="int" name="NREBOOT">     0</i>
   <i type="int" name="NMIN">     0</i>
   <i name="EREF">      0.00000000</i>
   <separator name="electronic smearing" >
    <i type="int" name="ISMEAR">     0</i>
    <i name="SIGMA">      0.01000000</i>
    <i name="KSPACING">      0.50000000</i>
    <i type="logical" name="KGAMMA"> T  </i>
   </separator>
   <separator name="electronic projectors" >
    <i type="logical" name="LREAL"> T  </i>
    <v name="ROPT">     -0.00040000     -0.00040000     -0.00040000</v>
    <i type="int" name="LMAXPAW">  -100</i>
    <i type="int" name="LMAXMIX">     2</i>
    <i type="logical" name="NLSPLINE"> F  </i>
   </separator>
   <separator name="electronic startup" >
    <i type="int" name="ISTART">     1</i>
    <i type="int" name="ICHARG">    11</i>
    <i type="int" name="INIWAV">     1</i>
   </separator>
   <separator name="electronic spin" >
    <i type="int" name="ISPIN">     1</i>
    <i type="logical" name="LNONCOLLINEAR"> F  </i>
    <v name="MAGMOM">      1.00000000      1.00000000      1.00000000      1.00000000      1.00000000      1.00000000      1.00000000      1.00000000      1.00000000      1.00000000      1.00000000      1.00000000      1.00000000      1.00000000      1.00000000      1.00000000      1.00000000      1.00000000      1.00000000      1.00000000
      1.00000000      1.00000000      1.00000000      1.00000000      1.00000000      1.00000000      1.00000000      1.00000000      1.00000000      1.00000000      1.00000000      1.00000000      1.00000000      1.00000000      1.00000000      1.00000000      1.00000000      1.00000000      1.00000000      1.00000000
      1.00000000      1.00000000</v>
    <i name="NUPDOWN">     -1.00000000</i>
    <i type="logical" name="LSORBIT"> F  </i>
    <v name="SAXIS">      0.00000000      0.00000000      1.00000000</v>
    <i type="logical" name="LSPIRAL"> F  </i>
    <v name="QSPIRAL">      0.00000000      0.00000000      0.00000000</v>
    <i type="logical" name="LZEROZ"> F  </i>
   </separator>
   <separator name="electronic exchange-correlation" >
    <i type="logical" name="LASPH"> F  </i>
    <i type="logical" name="LMETAGGA"> F  </i>
   </separator>
   <separator name="electronic convergence" >
    <i type="int" name="NELM">   200</i>
    <i type="int" name="NELMDL">     0</i>
    <i type="int" name="NELMIN">     2</i>
    <i name="ENINI">    500.00000000</i>
    <separator name="electronic convergence detail" >
     <i type="logical" name="LDIAG"> T  </i>
     <i type="logical" name="LSUBROT"> F  </i>
     <i name="WEIMIN">      0.00000000</i>
     <i name="EBREAK">      0.00000003</i>
     <i name="DEPER">      0.30000000</i>
     <i type="int" name="NRMM">     4</i>
     <i name="TIME">      0.40000000</i>
    </separator>
   </separator>
   <separator name="electronic mixer" >
    <i name="AMIX">      0.40000000</i>
    <i name="BMIX">      1.00000000</i>
    <i name="AMIN">      0.10000000</i>
    <i name="AMIX_MAG">      1.60000000</i>
    <i name="BMIX_MAG">      1.00000000</i>
    <separator name="electronic mixer details" >
     <i type="int" name="IMIX">     4</i>
     <i type="logical" name="MIXFIRST"> F  </i>
     <i type="int" name="MAXMIX">   -45</i>
     <i name="WC">    100.00000000</i>
     <i type="int" name="INIMIX">     1</i>
     <i type="int" name="MIXPRE">     1</i>
     <i type="int" name="MREMOVE">     5</i>
    </separator>
   </separator>
   <separator name="electronic dipolcorrection" >
    <i type="logical" name="LDIPOL"> F  </i>
    <i type="logical" name="LMONO"> F  </i>
    <i type="int" name="IDIPOL">     0</i>
    <i name="EPSILON">      1.00000000</i>
    <v name="DIPOL">   -100.00000000   -100.00000000   -100.00000000</v>
    <i name="EFIELD">      0.00000000</i>
   </separator>
  </separator>
  <separator name="grids" >
   <i type="int" name="NGX">   108</i>
   <i type="int" name="NGY">   108</i>
   <i type="int" name="NGZ">   150</i>
   <i type="int" name="NGXF">   162</i>
   <i type="int" name="NGYF">   162</i>
   <i type="int" name="NGZF">   224</i>
   <i type="logical" name="ADDGRID"> F  </i>
  </separator>
  <separator name="ionic" >
   <i type="int" name="NSW">     0</i>
   <i type="int" name="IBRION">    -1</i>
   <i type="int" name="MDALGO">     0</i>
   <i type="int" name="ISIF">     2</i>
   <i name="PSTRESS">      0.00000000</i>
   <i name="EDIFFG">     -0.01000000</i>
   <i type="int" name="NFREE">     0</i>
   <i name="POTIM">      0.30000000</i>
   <i name="SMASS">     -3.00000000</i>
   <i name="SCALEE">      1.00000000</i>
  </separator>
  <separator name="ionic md" >
   <i name="TEBEG">      0.00010000</i>
   <i name="TEEND">      0.00010000</i>
   <i type="int" name="NBLOCK">     1</i>
   <i type="int" name="KBLOCK">     1</i>
   <i type="int" name="NPACO">   256</i>
   <i name="APACO">     16.00000000</i>
  </separator>
  <separator name="symmetry" >
   <i type="int" name="ISYM">     2</i>
   <i name="SYMPREC">      0.00001000</i>
  </separator>
  <separator name="dos" >
   <i type="int" name="LORBIT">     0</i>
   <v name="RWIGS">     -1.00000000     -1.00000000     -1.00000000</v>
   <i type="int" name="NEDOS">   301</i>
   <i name="EMIN">     10.00000000</i>
   <i name="EMAX">    -10.00000000</i>
   <i name="EFERMI">      0.00000000</i>
  </separator>
  <separator name="writing" >
   <i type="int" name="NWRITE">     0</i>
   <i type="logical" name="LWAVE"> F  </i>
   <i type="logical" name="LDOWNSAMPLE"> F  </i>
   <i type="logical" name="LCHARG"> F  </i>
   <i type="logical" name="LPARD"> F  </i>
   <i type="logical" name="LVTOT"> F  </i>
   <i type="logical" name="LVHAR"> F  </i>
   <i type="logical" name="LELF"> F  </i>
   <i type="logical" name="LOPTICS"> F  </i>
   <v name="STM">      0.00000000      0.00000000      0.00000000      0.00000000      0.00000000      0.00000000      0.00000000</v>
  </separator>
  <separator name="performance" >
   <i type="int" name="NPAR">    16</i>
   <i type="int" name="NSIM">     4</i>
   <i type="int" name="NBLK">    -1</i>
   <i type="logical" name="LPLANE"> T  </i>
   <i type="logical" name="LSCALAPACK"> T  </i>
   <i type="logical" name="LSCAAWARE"> F  </i>
   <i type="logical" name="LSCALU"> F  </i>
   <i type="logical" name="LASYNC"> F  </i>
   <i type="logical" name="LORBITALREAL"> F  </i>
  </separator>
  <separator name="miscellaneous" >
   <i type="int" name="IDIOT">     3</i>
   <i type="int" name="ISPECIAL">     0</i>
   <i type="logical" name="LMUSIC"> F  </i>
   <v name="POMASS">      1.00000000     14.00100000     12.01100000</v>
   <v name="DARWINR">      0.00000000      0.00000000      0.00000000</v>
   <v name="DARWINV">      1.00000000      1.00000000      1.00000000</v>
   <i type="logical" name="LCORR"> T  </i>
  </separator>
  <i type="logical" name="GGA_COMPAT"> T  </i>
  <i type="logical" name="LBERRY"> F  </i>
  <i type="int" name="ICORELEVEL">     0</i>
  <i type="logical" name="LDAU"> F  </i>
  <i type="int" name="I_CONSTRAINED_M">     0</i>
  <separator name="electronic exchange-correlation" >
   <i type="string" name="GGA">PE</i>
   <i type="int" name="VOSKOWN">     0</i>
   <i type="logical" name="LHFCALC"> F  </i>
   <i type="string" name="PRECFOCK"></i>
   <i type="logical" name="LSYMGRAD"> F  </i>
   <i type="logical" name="LHFONE"> F  </i>
   <i type="logical" name="LRHFCALC"> F  </i>
   <i type="logical" name="LTHOMAS"> F  </i>
   <i type="logical" name="LMODELHF"> F  </i>
   <i name="ENCUT4O">     -1.00000000</i>
   <i type="int" name="EXXOEP">     0</i>
   <i type="int" name="FOURORBIT">     0</i>
   <i name="AEXX">      0.00000000</i>
   <i name="HFALPHA">      0.00000000</i>
   <i name="MCALPHA">      0.00000000</i>
   <i name="ALDAX">      1.00000000</i>
   <i name="AGGAX">      1.00000000</i>
   <i name="ALDAC">      1.00000000</i>
   <i name="AGGAC">      1.00000000</i>
   <i type="int" name="NKREDX">     1</i>
   <i type="int" name="NKREDY">     1</i>
   <i type="int" name="NKREDZ">     1</i>
   <i type="logical" name="SHIFTRED"> F  </i>
   <i type="logical" name="ODDONLY"> F  </i>
   <i type="logical" name="EVENONLY"> F  </i>
   <i type="int" name="LMAXFOCK">     0</i>
   <i type="int" name="NMAXFOCKAE">     0</i>
   <i type="logical" name="LFOCKAEDFT"> F  </i>
   <i name="HFSCREEN">      0.00000000</i>
   <i name="HFSCREENC">      0.00000000</i>
   <i type="int" name="NBANDSGWLOW">     0</i>
  </separator>
  <separator name="vdW DFT" >
   <i type="logical" name="LUSE_VDW"> F  </i>
   <i name="Zab_VDW">     -0.84910000</i>
   <i name="PARAM1">      0.12340000</i>
   <i name="PARAM2">      1.00000000</i>
   <i name="PARAM3">      0.00000000</i>
  </separator>
  <separator name="model GW" >
   <i type="int" name="MODEL_GW">     0</i>
   <i name="MODEL_EPS0">     53.42992473</i>
   <i name="MODEL_ALPHA">      1.00000000</i>
  </separator>
  <separator name="linear response parameters" >
   <i type="logical" name="LEPSILON"> F  </i>
   <i type="logical" name="LRPA"> F  </i>
   <i type="logical" name="LNABLA"> F  </i>
   <i type="logical" name="LVEL"> F  </i>
   <i type="int" name="KINTER">     0</i>
   <i name="CSHIFT">      0.10000000</i>
   <i name="OMEGAMAX">     -1.00000000</i>
   <i name="DEG_THRESHOLD">      0.00200000</i>
   <i name="RTIME">     -0.10000000</i>
   <i name="WPLASMAI">      0.00000000</i>
   <v name="DFIELD">      0.00000000      0.00000000      0.00000000</v>
   <v name="WPLASMA">      0.00000000      0.00000000      0.00000000      0.00000000      0.00000000      0.00000000      0.00000000      0.00000000      0.00000000</v>
  </separator>
  <separator name="orbital magnetization" >
   <i type="logical" name="NUCIND"> F  </i>
   <v name="MAGPOS">      0.00000000      0.00000000      0.00000000</v>
   <i type="logical" name="LNICSALL"> T  </i>
   <i type="logical" name="ORBITALMAG"> F  </i>
   <i type="logical" name="LMAGBLOCH"> F  </i>
   <i type="logical" name="LCHIMAG"> F  </i>
   <i type="logical" name="LGAUGE"> T  </i>
   <i type="int" name="MAGATOM">     0</i>
   <v name="MAGDIPOL">      0.00000000      0.00000000      0.00000000</v>
   <v name="AVECCONST">      0.00000000      0.00000000      0.00000000</v>
  </separator>
  <separator name="response functions" >
   <i type="logical" name="LADDER"> F  </i>
   <i type="logical" name="LRPAFORCE"> F  </i>
   <i type="logical" name="LFXC"> F  </i>
   <i type="logical" name="LHARTREE"> T  </i>
   <i type="int" name="IBSE">     0</i>
   <v type="int" name="KPOINT">    -1     0     0     0</v>
   <i type="logical" name="LTCTE"> F  </i>
   <i type="logical" name="LTETE"> F  </i>
   <i type="logical" name="LTRIPLET"> F  </i>
   <i type="logical" name="LFXCEPS"> F  </i>
   <i type="logical" name="LFXHEG"> F  </i>
   <i type="int" name="NATURALO">     2</i>
   <i type="logical" name="L2ORDER"> F  </i>
   <i type="logical" name="LMP2LT"> F  </i>
   <i type="logical" name="LUSEW"> F  </i>
   <i name="ENCUTGW">     -2.00000000</i>
   <i name="ENCUTGWSOFT">     -2.00000000</i>
   <i name="ENCUTLF">     -1.00000000</i>
   <i type="int" name="LMAXMP2">    -1</i>
   <i name="SCISSOR">      0.00000000</i>
   <i type="int" name="NOMEGA">     0</i>
   <i type="int" name="NOMEGAR">     0</i>
   <i type="int" name="NBANDSGW">    -1</i>
   <i type="int" name="NBANDSO">    -1</i>
   <i type="int" name="NBANDSV">    -1</i>
   <i type="int" name="NELM">   200</i>
   <i type="int" name="NELMHF">     1</i>
   <i type="int" name="DIM">     3</i>
   <i type="int" name="ANTIRES">     0</i>
   <i name="OMEGAMAX">    -30.00000000</i>
   <i name="OMEGAMIN">    -30.00000000</i>
   <i name="OMEGATL">   -200.00000000</i>
   <i type="int" name="OMEGAGRID">   140</i>
   <i name="CSHIFT">     -0.10000000</i>
   <i type="logical" name="SELFENERGY"> F  </i>
   <i type="logical" name="LSPECTRAL"> F  </i>
   <i type="logical" name="LSPECTRALGW"> F  </i>
   <i type="logical" name="LSINGLES"> F  </i>
   <i type="logical" name="LFERMIGW"> F  </i>
   <i type="logical" name="ODDONLYGW"> F  </i>
   <i type="logical" name="EVENONLYGW"> F  </i>
   <i type="int" name="NKREDLFX">     1</i>
   <i type="int" name="NKREDLFY">     1</i>
   <i type="int" name="NKREDLFZ">     1</i>
   <i type="int" name="MAXMEM">  2800</i>
   <i type="int" name="TELESCOPE">     0</i>
   <i type="int" name="TAUPAR">     1</i>
   <i type="int" name="OMEGAPAR">    -1</i>
   <i name="LAMBDA">      1.00000000</i>
  </separator>
  <separator name="External order field" >
   <i name="OFIELD_KAPPA">      0.00000000</i>
   <v name="OFIELD_K">      0.00000000      0.00000000      0.00000000</v>
   <i name="OFIELD_Q6_NEAR">      0.00000000</i>
   <i name="OFIELD_Q6_FAR">      0.00000000</i>
   <i name="OFIELD_A">      0.00000000</i>
  </separator>
  <separator name="solvation model" >
   <i type="logical" name="LSOL"> F  </i>
  </separator>
 </parameters>
 <atominfo>
  <atoms>      42 </atoms>
  <types>       3 </types>
  <array name="atoms" >
   <dimension dim="1">ion</dimension>
   <field type="string">element</field>
   <field type="int">atomtype</field>
   <set>
    <rc><c>H </c><c>   1</c></rc>
    <rc><c>H </c><c>   1</c></rc>
    <rc><c>H </c><c>   1</c></rc>
    <rc><c>H </c><c>   1</c></rc>
    <rc><c>H </c><c>   1</c></rc>
    <rc><c>H </c><c>   1</c></rc>
    <rc><c>H </c><c>   1</c></rc>
    <rc><c>H </c><c>   1</c></rc>
    <rc><c>H </c><c>   1</c></rc>
    <rc><c>H </c><c>   1</c></rc>
    <rc><c>H </c><c>   1</c></rc>
    <rc><c>H </c><c>   1</c></rc>
    <rc><c>N </c><c>   2</c></rc>
    <rc><c>N </c><c>   2</c></rc>
    <rc><c>N </c><c>   2</c></rc>
    <rc><c>N </c><c>   2</c></rc>
    <rc><c>N </c><c>   2</c></rc>
    <rc><c>N </c><c>   2</c></rc>
    <rc><c>C </c><c>   3</c></rc>
    <rc><c>C </c><c>   3</c></rc>
    <rc><c>C </c><c>   3</c></rc>
    <rc><c>C </c><c>   3</c></rc>
    <rc><c>C </c><c>   3</c></rc>
    <rc><c>C </c><c>   3</c></rc>
    <rc><c>C </c><c>   3</c></rc>
    <rc><c>C </c><c>   3</c></rc>
    <rc><c>C </c><c>   3</c></rc>
    <rc><c>C </c><c>   3</c></rc>
    <rc><c>C </c><c>   3</c></rc>
    <rc><c>C </c><c>   3</c></rc>
    <rc><c>C </c><c>   3</c></rc>
    <rc><c>C </c><c>   3</c></rc>
    <rc><c>C </c><c>   3</c></rc>
    <rc><c>C </c><c>   3</c></rc>
    <rc><c>C </c><c>   3</c></rc>
    <rc><c>C </c><c>   3</c></rc>
    <rc><c>C </c><c>   3</c></rc>
    <rc><c>C </c><c>   3</c></rc>
    <rc><c>C </c><c>   3</c></rc>
    <rc><c>C </c><c>   3</c></rc>
    <rc><c>C </c><c>   3</c></rc>
    <rc><c>C </c><c>   3</c></rc>
   </set>
  </array>
  <array name="atomtypes" >
   <dimension dim="1">type</dimension>
   <field type="int">atomspertype</field>
   <field type="string">element</field>
   <field>mass</field>
   <field>valence</field>
   <field type="string">pseudopotential</field>
   <set>
    <rc><c>  12</c><c>H </c><c>      1.00000000</c><c>      1.00000000</c><c>  PAW_PBE H 15Jun2001                   </c></rc>
    <rc><c>   6</c><c>N </c><c>     14.00100000</c><c>      5.00000000</c><c>  PAW_PBE N 08Apr2002                   </c></rc>
    <rc><c>  24</c><c>C </c><c>     12.01100000</c><c>      4.00000000</c><c>  PAW_PBE C 08Apr2002                   </c></rc>
   </set>
  </array>
 </atominfo>
 <structure name="initialpos" >
  <crystal>
   <varray name="basis" >
    <v>      14.69449958      -0.00082958       0.00000000 </v>
    <v>      -7.34796822      12.72658734       0.00000000 </v>
    <v>       0.00000000       0.00000000      20.00000000 </v>
   </varray>
   <i name="volume">   3740.09473104 </i>
   <varray name="rec_basis" >
    <v>       0.06805489       0.03929295       0.00000000 </v>
    <v>       0.00000444       0.07857822       0.00000000 </v>
    <v>       0.00000000       0.00000000       0.05000000 </v>
   </varray>
  </crystal>
  <varray name="positions" >
   <v>       0.54402480       0.08821614       0.60747507 </v>
   <v>       0.76443261       0.23562467       0.49944472 </v>
   <v>       0.47115445       0.23554778       0.49951825 </v>
   <v>       0.91176288       0.45597489       0.60747033 </v>
   <v>       0.54394889       0.45574879       0.60748177 </v>
   <v>       0.76437711       0.52881818       0.49947297 </v>
   <v>       0.23562289       0.47118182       0.50052703 </v>
   <v>       0.23556739       0.76437533       0.50055528 </v>
   <v>       0.52884555       0.76445222       0.50048175 </v>
   <v>       0.08823712       0.54402511       0.39252967 </v>
   <v>       0.45605111       0.54425121       0.39251823 </v>
   <v>       0.45597520       0.91178386       0.39252493 </v>
   <v>       0.52854369       0.05705744       0.43974533 </v>
   <v>       0.05705406       0.52853927       0.56025724 </v>
   <v>       0.47144929       0.52851106       0.56025176 </v>
   <v>       0.47145631       0.94294256       0.56025467 </v>
   <v>       0.94294594       0.47146073       0.43974276 </v>
   <v>       0.52855071       0.47148894       0.43974824 </v>
   <v>       0.61155594       0.22311856       0.49996617 </v>
   <v>       0.55299533       0.10601003       0.49935149 </v>
   <v>       0.52400803       0.04808304       0.55911893 </v>
   <v>       0.55690240       0.27843847       0.50012170 </v>
   <v>       0.72154118       0.27847531       0.50008431 </v>
   <v>       0.61152718       0.38841375       0.49997361 </v>
   <v>       0.72151277       0.44307477       0.50009842 </v>
   <v>       0.77686621       0.38845447       0.49995634 </v>
   <v>       0.89398289       0.44701862       0.49934640 </v>
   <v>       0.55296451       0.44695655       0.49935703 </v>
   <v>       0.38844406       0.77688144       0.50003383 </v>
   <v>       0.44309760       0.72156153       0.49987830 </v>
   <v>       0.38847282       0.61158625       0.50002639 </v>
   <v>       0.27848723       0.55692523       0.49990158 </v>
   <v>       0.22313379       0.61154553       0.50004366 </v>
   <v>       0.27845882       0.72152469       0.49991569 </v>
   <v>       0.95190671       0.47599847       0.55911654 </v>
   <v>       0.10601711       0.55298138       0.50065360 </v>
   <v>       0.52396895       0.47589288       0.55912224 </v>
   <v>       0.44703549       0.55304345       0.50064297 </v>
   <v>       0.44700467       0.89398997       0.50064851 </v>
   <v>       0.04809329       0.52400153       0.44088346 </v>
   <v>       0.47603105       0.52410712       0.44087776 </v>
   <v>       0.47599197       0.95191696       0.44088107 </v>
  </varray>
 </structure>
 <calculation>
  <scstep>
   <time name="dav">   23.74   23.97</time>
   <time name="total">   23.83   24.07</time>
   <energy>
    <i name="alphaZ">     24.03535605 </i>
    <i name="ewald">  13903.47289138 </i>
    <i name="hartreedc"> -18219.14587346 </i>
    <i name="XCdc">    482.76937675 </i>
    <i name="pawpsdc">  13092.45222343 </i>
    <i name="pawaedc"> -13117.41315112 </i>
    <i name="eentropy">     -0.00000000 </i>
    <i name="bandstr">  -1740.50506892 </i>
    <i name="atom">   5268.60837544 </i>
    <i name="e_fr_energy">   -305.72587045 </i>
    <i name="e_wo_entrp">   -305.72587045 </i>
    <i name="e_0_energy">   -305.72587045 </i>
   </energy>
  </scstep>
  <scstep>
   <time name="dav">   25.54   25.72</time>
   <time name="total">   25.54   25.73</time>
   <energy>
    <i name="e_fr_energy">   -307.19812391 </i>
    <i name="e_wo_entrp">   -307.19812391 </i>
    <i name="e_0_energy">   -307.19812391 </i>
   </energy>
  </scstep>
  <scstep>
   <time name="dav">   27.43   27.64</time>
   <time name="total">   27.43   27.64</time>
   <energy>
    <i name="e_fr_energy">   -307.23229813 </i>
    <i name="e_wo_entrp">   -307.23229813 </i>
    <i name="e_0_energy">   -307.23229813 </i>
   </energy>
  </scstep>
  <scstep>
   <time name="dav">   26.53   26.73</time>
   <time name="total">   26.54   26.73</time>
   <energy>
    <i name="e_fr_energy">   -307.23340721 </i>
    <i name="e_wo_entrp">   -307.23340721 </i>
    <i name="e_0_energy">   -307.23340721 </i>
   </energy>
  </scstep>
  <scstep>
   <time name="dav">   25.89   26.12</time>
   <time name="total">   25.89   26.12</time>
   <energy>
    <i name="e_fr_energy">   -307.23343369 </i>
    <i name="e_wo_entrp">   -307.23343369 </i>
    <i name="e_0_energy">   -307.23343369 </i>
   </energy>
  </scstep>
  <scstep>
   <time name="dav">   20.83   20.98</time>
   <time name="total">   20.84   20.99</time>
   <energy>
    <i name="alphaZ">     24.03535605 </i>
    <i name="ewald">  13903.47289138 </i>
    <i name="hartreedc"> -18219.14587346 </i>
    <i name="XCdc">    482.76937675 </i>
    <i name="pawpsdc">  13092.45222343 </i>
    <i name="pawaedc"> -13117.41315112 </i>
    <i name="eentropy">     -0.00000000 </i>
    <i name="bandstr">  -1742.01263267 </i>
    <i name="atom">   5268.60837544 </i>
    <i name="e_fr_energy">   -307.23343420 </i>
    <i name="e_wo_entrp">   -307.23343420 </i>
    <i name="e_0_energy">   -307.23343420 </i>
   </energy>
  </scstep>
  <structure>
   <crystal>
    <varray name="basis" >
     <v>      14.69449958      -0.00082958       0.00000000 </v>
     <v>      -7.34796822      12.72658734       0.00000000 </v>
     <v>       0.00000000       0.00000000      20.00000000 </v>
    </varray>
    <i name="volume">   3740.09473104 </i>
    <varray name="rec_basis" >
     <v>       0.06805489       0.03929295       0.00000000 </v>
     <v>       0.00000444       0.07857822       0.00000000 </v>
     <v>       0.00000000       0.00000000       0.05000000 </v>
    </varray>
   </crystal>
   <varray name="positions" >
    <v>       0.54402480       0.08821614       0.60747507 </v>
    <v>       0.76443261       0.23562467       0.49944472 </v>
    <v>       0.47115445       0.23554778       0.49951825 </v>
    <v>       0.91176288       0.45597489       0.60747033 </v>
    <v>       0.54394889       0.45574879       0.60748177 </v>
    <v>       0.76437711       0.52881818       0.49947297 </v>
    <v>       0.23562289       0.47118182       0.50052703 </v>
    <v>       0.23556739       0.76437533       0.50055528 </v>
    <v>       0.52884555       0.76445222       0.50048175 </v>
    <v>       0.08823712       0.54402511       0.39252967 </v>
    <v>       0.45605111       0.54425121       0.39251823 </v>
    <v>       0.45597520       0.91178386       0.39252493 </v>
    <v>       0.52854369       0.05705744       0.43974533 </v>
    <v>       0.05705406       0.52853927       0.56025724 </v>
    <v>       0.47144929       0.52851106       0.56025176 </v>
    <v>       0.47145631       0.94294256       0.56025467 </v>
    <v>       0.94294594       0.47146073       0.43974276 </v>
    <v>       0.52855071       0.47148894       0.43974824 </v>
    <v>       0.61155594       0.22311856       0.49996617 </v>
    <v>       0.55299533       0.10601003       0.49935149 </v>
    <v>       0.52400803       0.04808304       0.55911893 </v>
    <v>       0.55690240       0.27843847       0.50012170 </v>
    <v>       0.72154118       0.27847531       0.50008431 </v>
    <v>       0.61152718       0.38841375       0.49997361 </v>
    <v>       0.72151277       0.44307477       0.50009842 </v>
    <v>       0.77686621       0.38845447       0.49995634 </v>
    <v>       0.89398289       0.44701862       0.49934640 </v>
    <v>       0.55296451       0.44695655       0.49935703 </v>
    <v>       0.38844406       0.77688144       0.50003383 </v>
    <v>       0.44309760       0.72156153       0.49987830 </v>
    <v>       0.38847282       0.61158625       0.50002639 </v>
    <v>       0.27848723       0.55692523       0.49990158 </v>
    <v>       0.22313379       0.61154553       0.50004366 </v>
    <v>       0.27845882       0.72152469       0.49991569 </v>
    <v>       0.95190671       0.47599847       0.55911654 </v>
    <v>       0.10601711       0.55298138       0.50065360 </v>
    <v>       0.52396895       0.47589288       0.55912224 </v>
    <v>       0.44703549       0.55304345       0.50064297 </v>
    <v>       0.44700467       0.89398997       0.50064851 </v>
    <v>       0.04809329       0.52400153       0.44088346 </v>
    <v>       0.47603105       0.52410712       0.44087776 </v>
    <v>       0.47599197       0.95191696       0.44088107 </v>
   </varray>
  </structure>
  <varray name="forces" >
   <v>       0.00016255      -0.00274463       0.00201413 </v>
   <v>       0.00037878      -0.00058919      -0.00309066 </v>
   <v>      -0.00237557      -0.00105688      -0.00282814 </v>
   <v>       0.00230222       0.00132563       0.00234533 </v>
   <v>      -0.00224468       0.00147898       0.00164572 </v>
   <v>       0.00010972       0.00125908      -0.00325905 </v>
   <v>      -0.00010972      -0.00125908       0.00325905 </v>
   <v>      -0.00037878       0.00058919       0.00309066 </v>
   <v>       0.00237557       0.00105688       0.00282814 </v>
   <v>      -0.00230222      -0.00132563      -0.00234533 </v>
   <v>       0.00224468      -0.00147898      -0.00164572 </v>
   <v>      -0.00016255       0.00274463      -0.00201413 </v>
   <v>       0.00227486      -0.00790603       0.00322188 </v>
   <v>      -0.00951467      -0.00512788      -0.00425618 </v>
   <v>       0.00475146      -0.00490462      -0.00328195 </v>
   <v>      -0.00227486       0.00790603      -0.00322188 </v>
   <v>       0.00951467       0.00512788       0.00425618 </v>
   <v>      -0.00475146       0.00490462       0.00328195 </v>
   <v>      -0.00875543      -0.00062566      -0.00627303 </v>
   <v>      -0.00168902      -0.00153722      -0.00147508 </v>
   <v>       0.00054578       0.00532872      -0.00141837 </v>
   <v>       0.00671034       0.00374024      -0.00548586 </v>
   <v>       0.00192443      -0.00071894      -0.00555705 </v>
   <v>      -0.00378385      -0.00555682      -0.00619030 </v>
   <v>       0.00041256       0.00021786      -0.00549190 </v>
   <v>       0.00240730       0.00301732      -0.00599551 </v>
   <v>      -0.00317019      -0.00110853      -0.00330286 </v>
   <v>      -0.00347627       0.00033198      -0.00118217 </v>
   <v>       0.00875543       0.00062566       0.00627303 </v>
   <v>      -0.00671034      -0.00374024       0.00548586 </v>
   <v>       0.00378385       0.00555682       0.00619030 </v>
   <v>      -0.00041256      -0.00021786       0.00549190 </v>
   <v>      -0.00240730      -0.00301732       0.00599551 </v>
   <v>      -0.00192443       0.00071894       0.00555705 </v>
   <v>      -0.00308420      -0.00184165      -0.00002220 </v>
   <v>       0.00317019       0.00110853       0.00330286 </v>
   <v>       0.00549507      -0.00275960      -0.00211876 </v>
   <v>       0.00347627      -0.00033198       0.00118217 </v>
   <v>       0.00168902       0.00153722       0.00147508 </v>
   <v>       0.00308420       0.00184165       0.00002220 </v>
   <v>      -0.00549507       0.00275960       0.00211876 </v>
   <v>      -0.00054578      -0.00532872       0.00141837 </v>
  </varray>
  <varray name="stress" >
   <v>       0.01699590       0.00030286      -0.00057383 </v>
   <v>       0.00030286       0.01817319       0.00044029 </v>
   <v>      -0.00057382       0.00044028      -0.19747634 </v>
  </varray>
  <energy>
   <i name="e_fr_energy">   -308.08943530 </i>
   <i name="e_wo_entrp">   -308.08943530 </i>
   <i name="e_0_energy">     -0.00000000 </i>
  </energy>
  <time name="totalsc">  166.57  167.97</time>
  <eigenvalues>
   <array>
    <dimension dim="1">band</dimension>
    <dimension dim="2">kpoint</dimension>
    <dimension dim="3">spin</dimension>
    <field>eigene</field>
    <field>occ</field>
    <set>
     <set comment="spin 1">
      <set comment="kpoint 1">
       <r>  -24.3049    1.0000 </r>
       <r>  -24.2861    1.0000 </r>
       <r>  -24.2859    1.0000 </r>
       <r>  -22.5031    1.0000 </r>
       <r>  -22.4116    1.0000 </r>
       <r>  -22.4114    1.0000 </r>
       <r>  -21.4097    1.0000 </r>
       <r>  -21.3509    1.0000 </r>
       <r>  -19.9453    1.0000 </r>
       <r>  -19.9452    1.0000 </r>
       <r>  -19.0228    1.0000 </r>
       <r>  -19.0228    1.0000 </r>
       <r>  -18.8316    1.0000 </r>
       <r>  -17.6798    1.0000 </r>
       <r>  -17.6797    1.0000 </r>
       <r>  -16.2169    1.0000 </r>
       <r>  -16.2031    1.0000 </r>
       <r>  -16.2029    1.0000 </r>
       <r>  -16.0520    1.0000 </r>
       <r>  -16.0418    1.0000 </r>
       <r>  -16.0416    1.0000 </r>
       <r>  -14.7783    1.0000 </r>
       <r>  -14.7782    1.0000 </r>
       <r>  -14.1182    1.0000 </r>
       <r>  -14.1182    1.0000 </r>
       <r>  -13.0321    1.0000 </r>
       <r>  -12.8917    1.0000 </r>
       <r>  -12.6856    1.0000 </r>
       <r>  -12.6328    1.0000 </r>
       <r>  -12.6327    1.0000 </r>
       <r>  -11.8436    1.0000 </r>
       <r>  -11.7576    1.0000 </r>
       <r>  -11.7575    1.0000 </r>
       <r>  -11.7052    1.0000 </r>
       <r>  -11.5525    1.0000 </r>
       <r>  -11.4559    1.0000 </r>
       <r>  -11.0987    1.0000 </r>
       <r>  -11.0982    1.0000 </r>
       <r>  -10.5025    1.0000 </r>
       <r>  -10.2856    1.0000 </r>
       <r>  -10.2855    1.0000 </r>
       <r>  -10.0097    1.0000 </r>
       <r>  -10.0096    1.0000 </r>
       <r>   -9.6997    1.0000 </r>
       <r>   -9.5856    1.0000 </r>
       <r>   -9.4932    1.0000 </r>
       <r>   -9.4930    1.0000 </r>
       <r>   -8.9342    1.0000 </r>
       <r>   -8.8228    1.0000 </r>
       <r>   -8.4014    1.0000 </r>
       <r>   -8.4013    1.0000 </r>
       <r>   -8.3790    1.0000 </r>
       <r>   -8.3788    1.0000 </r>
       <r>   -7.8872    1.0000 </r>
       <r>   -7.8869    1.0000 </r>
       <r>   -7.8698    1.0000 </r>
       <r>   -6.9483    1.0000 </r>
       <r>   -6.9481    1.0000 </r>
       <r>   -6.8060    1.0000 </r>
       <r>   -6.5672    1.0000 </r>
       <r>   -6.5670    1.0000 </r>
       <r>   -6.3088    1.0000 </r>
       <r>   -6.3086    1.0000 </r>
       <r>   -6.2712    1.0000 </r>
       <r>   -6.0491    1.0000 </r>
       <r>   -6.0490    1.0000 </r>
       <r>   -5.4757    1.0000 </r>
       <r>   -5.2951    1.0000 </r>
       <r>   -5.2950    1.0000 </r>
       <r>   -2.2788    0.0000 </r>
       <r>   -2.2782    0.0000 </r>
       <r>   -2.1163    0.0000 </r>
       <r>   -1.6108    0.0000 </r>
       <r>   -1.6104    0.0000 </r>
       <r>   -1.2894    0.0000 </r>
       <r>   -1.2890    0.0000 </r>
       <r>   -1.2150    0.0000 </r>
       <r>   -0.9182    0.0000 </r>
       <r>   -0.9177    0.0000 </r>
       <r>   -0.2200    0.0000 </r>
       <r>    0.1995    0.0000 </r>
       <r>    0.4387    0.0000 </r>
       <r>    0.5952    0.0000 </r>
       <r>    0.5953    0.0000 </r>
       <r>    0.6301    0.0000 </r>
       <r>    0.6301    0.0000 </r>
       <r>    0.8625    0.0000 </r>
       <r>    0.8798    0.0000 </r>
       <r>    1.1701    0.0000 </r>
       <r>    1.1704    0.0000 </r>
       <r>    1.3528    0.0000 </r>
       <r>    1.3530    0.0000 </r>
       <r>    1.4293    0.0000 </r>
       <r>    1.4541    0.0000 </r>
       <r>    1.4713    0.0000 </r>
       <r>    1.4716    0.0000 </r>
      </set>
      <set comment="kpoint 2">
       <r>  -24.3048    1.0000 </r>
       <r>  -24.2861    1.0000 </r>
       <r>  -24.2859    1.0000 </r>
       <r>  -22.5029    1.0000 </r>
       <r>  -22.4117    1.0000 </r>
       <r>  -22.4114    1.0000 </r>
       <r>  -21.4096    1.0000 </r>
       <r>  -21.3510    1.0000 </r>
       <r>  -19.9453    1.0000 </r>
       <r>  -19.9444    1.0000 </r>
       <r>  -19.0309    1.0000 </r>
       <r>  -19.0228    1.0000 </r>
       <r>  -18.8232    1.0000 </r>
       <r>  -17.6810    1.0000 </r>
       <r>  -17.6798    1.0000 </r>
       <r>  -16.2169    1.0000 </r>
       <r>  -16.2032    1.0000 </r>
       <r>  -16.2029    1.0000 </r>
       <r>  -16.0520    1.0000 </r>
       <r>  -16.0418    1.0000 </r>
       <r>  -16.0416    1.0000 </r>
       <r>  -14.7782    1.0000 </r>
       <r>  -14.7771    1.0000 </r>
       <r>  -14.1191    1.0000 </r>
       <r>  -14.1182    1.0000 </r>
       <r>  -13.0320    1.0000 </r>
       <r>  -12.8921    1.0000 </r>
       <r>  -12.6856    1.0000 </r>
       <r>  -12.6329    1.0000 </r>
       <r>  -12.6327    1.0000 </r>
       <r>  -11.8436    1.0000 </r>
       <r>  -11.7583    1.0000 </r>
       <r>  -11.7578    1.0000 </r>
       <r>  -11.7048    1.0000 </r>
       <r>  -11.5508    1.0000 </r>
       <r>  -11.4564    1.0000 </r>
       <r>  -11.0986    1.0000 </r>
       <r>  -11.0985    1.0000 </r>
       <r>  -10.5021    1.0000 </r>
       <r>  -10.2855    1.0000 </r>
       <r>  -10.2847    1.0000 </r>
       <r>  -10.0106    1.0000 </r>
       <r>  -10.0097    1.0000 </r>
       <r>   -9.7005    1.0000 </r>
       <r>   -9.5853    1.0000 </r>
       <r>   -9.4932    1.0000 </r>
       <r>   -9.4931    1.0000 </r>
       <r>   -8.9341    1.0000 </r>
       <r>   -8.8230    1.0000 </r>
       <r>   -8.4053    1.0000 </r>
       <r>   -8.4047    1.0000 </r>
       <r>   -8.3752    1.0000 </r>
       <r>   -8.3749    1.0000 </r>
       <r>   -7.8872    1.0000 </r>
       <r>   -7.8869    1.0000 </r>
       <r>   -7.8699    1.0000 </r>
       <r>   -6.9483    1.0000 </r>
       <r>   -6.9480    1.0000 </r>
       <r>   -6.8064    1.0000 </r>
       <r>   -6.5671    1.0000 </r>
       <r>   -6.5665    1.0000 </r>
       <r>   -6.3087    1.0000 </r>
       <r>   -6.3083    1.0000 </r>
       <r>   -6.2716    1.0000 </r>
       <r>   -6.0494    1.0000 </r>
       <r>   -6.0489    1.0000 </r>
       <r>   -5.4755    1.0000 </r>
       <r>   -5.2953    1.0000 </r>
       <r>   -5.2952    1.0000 </r>
       <r>   -2.2789    0.0000 </r>
       <r>   -2.2780    0.0000 </r>
       <r>   -2.1166    0.0000 </r>
       <r>   -1.6105    0.0000 </r>
       <r>   -1.6104    0.0000 </r>
       <r>   -1.2894    0.0000 </r>
       <r>   -1.2885    0.0000 </r>
       <r>   -1.2150    0.0000 </r>
       <r>   -0.9186    0.0000 </r>
       <r>   -0.9182    0.0000 </r>
       <r>   -0.2194    0.0000 </r>
       <r>    0.1995    0.0000 </r>
       <r>    0.4387    0.0000 </r>
       <r>    0.5849    0.0000 </r>
       <r>    0.5861    0.0000 </r>
       <r>    0.6380    0.0000 </r>
       <r>    0.6403    0.0000 </r>
       <r>    0.8631    0.0000 </r>
       <r>    0.8829    0.0000 </r>
       <r>    1.1661    0.0000 </r>
       <r>    1.1689    0.0000 </r>
       <r>    1.3468    0.0000 </r>
       <r>    1.3549    0.0000 </r>
       <r>    1.4324    0.0000 </r>
       <r>    1.4471    0.0000 </r>
       <r>    1.4707    0.0000 </r>
       <r>    1.4916    0.0000 </r>
      </set>
      <set comment="kpoint 3">
       <r>  -24.3048    1.0000 </r>
       <r>  -24.2862    1.0000 </r>
       <r>  -24.2859    1.0000 </r>
       <r>  -22.5025    1.0000 </r>
       <r>  -22.4122    1.0000 </r>
       <r>  -22.4114    1.0000 </r>
       <r>  -21.4094    1.0000 </r>
       <r>  -21.3514    1.0000 </r>
       <r>  -19.9453    1.0000 </r>
       <r>  -19.9420    1.0000 </r>
       <r>  -19.0519    1.0000 </r>
       <r>  -19.0228    1.0000 </r>
       <r>  -18.8014    1.0000 </r>
       <r>  -17.6847    1.0000 </r>
       <r>  -17.6798    1.0000 </r>
       <r>  -16.2168    1.0000 </r>
       <r>  -16.2032    1.0000 </r>
       <r>  -16.2029    1.0000 </r>
       <r>  -16.0519    1.0000 </r>
       <r>  -16.0418    1.0000 </r>
       <r>  -16.0416    1.0000 </r>
       <r>  -14.7781    1.0000 </r>
       <r>  -14.7737    1.0000 </r>
       <r>  -14.1219    1.0000 </r>
       <r>  -14.1183    1.0000 </r>
       <r>  -13.0316    1.0000 </r>
       <r>  -12.8931    1.0000 </r>
       <r>  -12.6855    1.0000 </r>
       <r>  -12.6332    1.0000 </r>
       <r>  -12.6327    1.0000 </r>
       <r>  -11.8435    1.0000 </r>
       <r>  -11.7604    1.0000 </r>
       <r>  -11.7583    1.0000 </r>
       <r>  -11.7036    1.0000 </r>
       <r>  -11.5460    1.0000 </r>
       <r>  -11.4579    1.0000 </r>
       <r>  -11.0994    1.0000 </r>
       <r>  -11.0982    1.0000 </r>
       <r>  -10.5009    1.0000 </r>
       <r>  -10.2854    1.0000 </r>
       <r>  -10.2821    1.0000 </r>
       <r>  -10.0136    1.0000 </r>
       <r>  -10.0098    1.0000 </r>
       <r>   -9.7030    1.0000 </r>
       <r>   -9.5843    1.0000 </r>
       <r>   -9.4933    1.0000 </r>
       <r>   -9.4932    1.0000 </r>
       <r>   -8.9339    1.0000 </r>
       <r>   -8.8237    1.0000 </r>
       <r>   -8.4130    1.0000 </r>
       <r>   -8.4116    1.0000 </r>
       <r>   -8.3674    1.0000 </r>
       <r>   -8.3665    1.0000 </r>
       <r>   -7.8872    1.0000 </r>
       <r>   -7.8870    1.0000 </r>
       <r>   -7.8700    1.0000 </r>
       <r>   -6.9483    1.0000 </r>
       <r>   -6.9477    1.0000 </r>
       <r>   -6.8075    1.0000 </r>
       <r>   -6.5669    1.0000 </r>
       <r>   -6.5651    1.0000 </r>
       <r>   -6.3089    1.0000 </r>
       <r>   -6.3068    1.0000 </r>
       <r>   -6.2730    1.0000 </r>
       <r>   -6.0503    1.0000 </r>
       <r>   -6.0487    1.0000 </r>
       <r>   -5.4747    1.0000 </r>
       <r>   -5.2962    1.0000 </r>
       <r>   -5.2954    1.0000 </r>
       <r>   -2.2791    0.0000 </r>
       <r>   -2.2774    0.0000 </r>
       <r>   -2.1174    0.0000 </r>
       <r>   -1.6108    0.0000 </r>
       <r>   -1.6091    0.0000 </r>
       <r>   -1.2894    0.0000 </r>
       <r>   -1.2868    0.0000 </r>
       <r>   -1.2147    0.0000 </r>
       <r>   -0.9201    0.0000 </r>
       <r>   -0.9197    0.0000 </r>
       <r>   -0.2175    0.0000 </r>
       <r>    0.1995    0.0000 </r>
       <r>    0.4384    0.0000 </r>
       <r>    0.5652    0.0000 </r>
       <r>    0.5697    0.0000 </r>
       <r>    0.6509    0.0000 </r>
       <r>    0.6595    0.0000 </r>
       <r>    0.8647    0.0000 </r>
       <r>    0.8921    0.0000 </r>
       <r>    1.1545    0.0000 </r>
       <r>    1.1650    0.0000 </r>
       <r>    1.3307    0.0000 </r>
       <r>    1.3602    0.0000 </r>
       <r>    1.4301    0.0000 </r>
       <r>    1.4475    0.0000 </r>
       <r>    1.4697    0.0000 </r>
       <r>    1.5248    0.0000 </r>
      </set>
      <set comment="kpoint 4">
       <r>  -24.3046    1.0000 </r>
       <r>  -24.2863    1.0000 </r>
       <r>  -24.2859    1.0000 </r>
       <r>  -22.5019    1.0000 </r>
       <r>  -22.4129    1.0000 </r>
       <r>  -22.4114    1.0000 </r>
       <r>  -21.4091    1.0000 </r>
       <r>  -21.3519    1.0000 </r>
       <r>  -19.9453    1.0000 </r>
       <r>  -19.9380    1.0000 </r>
       <r>  -19.0803    1.0000 </r>
       <r>  -19.0228    1.0000 </r>
       <r>  -18.7716    1.0000 </r>
       <r>  -17.6909    1.0000 </r>
       <r>  -17.6798    1.0000 </r>
       <r>  -16.2166    1.0000 </r>
       <r>  -16.2033    1.0000 </r>
       <r>  -16.2031    1.0000 </r>
       <r>  -16.0519    1.0000 </r>
       <r>  -16.0419    1.0000 </r>
       <r>  -16.0416    1.0000 </r>
       <r>  -14.7779    1.0000 </r>
       <r>  -14.7682    1.0000 </r>
       <r>  -14.1266    1.0000 </r>
       <r>  -14.1185    1.0000 </r>
       <r>  -13.0310    1.0000 </r>
       <r>  -12.8949    1.0000 </r>
       <r>  -12.6855    1.0000 </r>
       <r>  -12.6337    1.0000 </r>
       <r>  -12.6327    1.0000 </r>
       <r>  -11.8434    1.0000 </r>
       <r>  -11.7637    1.0000 </r>
       <r>  -11.7591    1.0000 </r>
       <r>  -11.7016    1.0000 </r>
       <r>  -11.5382    1.0000 </r>
       <r>  -11.4604    1.0000 </r>
       <r>  -11.1009    1.0000 </r>
       <r>  -11.0977    1.0000 </r>
       <r>  -10.4990    1.0000 </r>
       <r>  -10.2852    1.0000 </r>
       <r>  -10.2779    1.0000 </r>
       <r>  -10.0184    1.0000 </r>
       <r>  -10.0100    1.0000 </r>
       <r>   -9.7070    1.0000 </r>
       <r>   -9.5826    1.0000 </r>
       <r>   -9.4936    1.0000 </r>
       <r>   -9.4932    1.0000 </r>
       <r>   -8.9335    1.0000 </r>
       <r>   -8.8249    1.0000 </r>
       <r>   -8.4216    1.0000 </r>
       <r>   -8.4194    1.0000 </r>
       <r>   -8.3582    1.0000 </r>
       <r>   -8.3568    1.0000 </r>
       <r>   -7.8873    1.0000 </r>
       <r>   -7.8872    1.0000 </r>
       <r>   -7.8702    1.0000 </r>
       <r>   -6.9484    1.0000 </r>
       <r>   -6.9471    1.0000 </r>
       <r>   -6.8093    1.0000 </r>
       <r>   -6.5665    1.0000 </r>
       <r>   -6.5628    1.0000 </r>
       <r>   -6.3092    1.0000 </r>
       <r>   -6.3044    1.0000 </r>
       <r>   -6.2752    1.0000 </r>
       <r>   -6.0517    1.0000 </r>
       <r>   -6.0482    1.0000 </r>
       <r>   -5.4733    1.0000 </r>
       <r>   -5.2977    1.0000 </r>
       <r>   -5.2958    1.0000 </r>
       <r>   -2.2794    0.0000 </r>
       <r>   -2.2764    0.0000 </r>
       <r>   -2.1189    0.0000 </r>
       <r>   -1.6113    0.0000 </r>
       <r>   -1.6069    0.0000 </r>
       <r>   -1.2896    0.0000 </r>
       <r>   -1.2839    0.0000 </r>
       <r>   -1.2142    0.0000 </r>
       <r>   -0.9224    0.0000 </r>
       <r>   -0.9221    0.0000 </r>
       <r>   -0.2144    0.0000 </r>
       <r>    0.1993    0.0000 </r>
       <r>    0.4376    0.0000 </r>
       <r>    0.5436    0.0000 </r>
       <r>    0.5526    0.0000 </r>
       <r>    0.6623    0.0000 </r>
       <r>    0.6814    0.0000 </r>
       <r>    0.8673    0.0000 </r>
       <r>    0.9069    0.0000 </r>
       <r>    1.1377    0.0000 </r>
       <r>    1.1591    0.0000 </r>
       <r>    1.3091    0.0000 </r>
       <r>    1.3680    0.0000 </r>
       <r>    1.4162    0.0000 </r>
       <r>    1.4646    0.0000 </r>
       <r>    1.4667    0.0000 </r>
       <r>    1.5268    0.0000 </r>
      </set>
      <set comment="kpoint 5">
       <r>  -24.3044    1.0000 </r>
       <r>  -24.2865    1.0000 </r>
       <r>  -24.2859    1.0000 </r>
       <r>  -22.5009    1.0000 </r>
       <r>  -22.4138    1.0000 </r>
       <r>  -22.4114    1.0000 </r>
       <r>  -21.4086    1.0000 </r>
       <r>  -21.3527    1.0000 </r>
       <r>  -19.9453    1.0000 </r>
       <r>  -19.9324    1.0000 </r>
       <r>  -19.1124    1.0000 </r>
       <r>  -19.0228    1.0000 </r>
       <r>  -18.7375    1.0000 </r>
       <r>  -17.6996    1.0000 </r>
       <r>  -17.6797    1.0000 </r>
       <r>  -16.2164    1.0000 </r>
       <r>  -16.2034    1.0000 </r>
       <r>  -16.2032    1.0000 </r>
       <r>  -16.0518    1.0000 </r>
       <r>  -16.0421    1.0000 </r>
       <r>  -16.0416    1.0000 </r>
       <r>  -14.7776    1.0000 </r>
       <r>  -14.7606    1.0000 </r>
       <r>  -14.1331    1.0000 </r>
       <r>  -14.1187    1.0000 </r>
       <r>  -13.0302    1.0000 </r>
       <r>  -12.8973    1.0000 </r>
       <r>  -12.6853    1.0000 </r>
       <r>  -12.6344    1.0000 </r>
       <r>  -12.6327    1.0000 </r>
       <r>  -11.8432    1.0000 </r>
       <r>  -11.7679    1.0000 </r>
       <r>  -11.7601    1.0000 </r>
       <r>  -11.6990    1.0000 </r>
       <r>  -11.5280    1.0000 </r>
       <r>  -11.4639    1.0000 </r>
       <r>  -11.1030    1.0000 </r>
       <r>  -11.0969    1.0000 </r>
       <r>  -10.4964    1.0000 </r>
       <r>  -10.2850    1.0000 </r>
       <r>  -10.2721    1.0000 </r>
       <r>  -10.0251    1.0000 </r>
       <r>  -10.0102    1.0000 </r>
       <r>   -9.7126    1.0000 </r>
       <r>   -9.5804    1.0000 </r>
       <r>   -9.4940    1.0000 </r>
       <r>   -9.4932    1.0000 </r>
       <r>   -8.9330    1.0000 </r>
       <r>   -8.8266    1.0000 </r>
       <r>   -8.4301    1.0000 </r>
       <r>   -8.4271    1.0000 </r>
       <r>   -8.3486    1.0000 </r>
       <r>   -8.3467    1.0000 </r>
       <r>   -7.8876    1.0000 </r>
       <r>   -7.8873    1.0000 </r>
       <r>   -7.8705    1.0000 </r>
       <r>   -6.9485    1.0000 </r>
       <r>   -6.9463    1.0000 </r>
       <r>   -6.8118    1.0000 </r>
       <r>   -6.5661    1.0000 </r>
       <r>   -6.5596    1.0000 </r>
       <r>   -6.3097    1.0000 </r>
       <r>   -6.3010    1.0000 </r>
       <r>   -6.2784    1.0000 </r>
       <r>   -6.0538    1.0000 </r>
       <r>   -6.0476    1.0000 </r>
       <r>   -5.4715    1.0000 </r>
       <r>   -5.2999    1.0000 </r>
       <r>   -5.2962    1.0000 </r>
       <r>   -2.2798    0.0000 </r>
       <r>   -2.2749    0.0000 </r>
       <r>   -2.1208    0.0000 </r>
       <r>   -1.6120    0.0000 </r>
       <r>   -1.6039    0.0000 </r>
       <r>   -1.2901    0.0000 </r>
       <r>   -1.2800    0.0000 </r>
       <r>   -1.2131    0.0000 </r>
       <r>   -0.9257    0.0000 </r>
       <r>   -0.9254    0.0000 </r>
       <r>   -0.2101    0.0000 </r>
       <r>    0.1989    0.0000 </r>
       <r>    0.4354    0.0000 </r>
       <r>    0.5228    0.0000 </r>
       <r>    0.5360    0.0000 </r>
       <r>    0.6712    0.0000 </r>
       <r>    0.7047    0.0000 </r>
       <r>    0.8705    0.0000 </r>
       <r>    0.9263    0.0000 </r>
       <r>    1.1176    0.0000 </r>
       <r>    1.1518    0.0000 </r>
       <r>    1.2846    0.0000 </r>
       <r>    1.3758    0.0000 </r>
       <r>    1.3991    0.0000 </r>
       <r>    1.4655    0.0000 </r>
       <r>    1.4865    0.0000 </r>
       <r>    1.5325    0.0000 </r>
      </set>
      <set comment="kpoint 6">
       <r>  -24.3042    1.0000 </r>
       <r>  -24.2868    1.0000 </r>
       <r>  -24.2859    1.0000 </r>
       <r>  -22.4998    1.0000 </r>
       <r>  -22.4151    1.0000 </r>
       <r>  -22.4114    1.0000 </r>
       <r>  -21.4080    1.0000 </r>
       <r>  -21.3537    1.0000 </r>
       <r>  -19.9453    1.0000 </r>
       <r>  -19.9253    1.0000 </r>
       <r>  -19.1464    1.0000 </r>
       <r>  -19.0228    1.0000 </r>
       <r>  -18.7012    1.0000 </r>
       <r>  -17.7105    1.0000 </r>
       <r>  -17.6797    1.0000 </r>
       <r>  -16.2162    1.0000 </r>
       <r>  -16.2035    1.0000 </r>
       <r>  -16.2034    1.0000 </r>
       <r>  -16.0517    1.0000 </r>
       <r>  -16.0422    1.0000 </r>
       <r>  -16.0416    1.0000 </r>
       <r>  -14.7772    1.0000 </r>
       <r>  -14.7510    1.0000 </r>
       <r>  -14.1414    1.0000 </r>
       <r>  -14.1190    1.0000 </r>
       <r>  -13.0291    1.0000 </r>
       <r>  -12.9003    1.0000 </r>
       <r>  -12.6851    1.0000 </r>
       <r>  -12.6353    1.0000 </r>
       <r>  -12.6327    1.0000 </r>
       <r>  -11.8429    1.0000 </r>
       <r>  -11.7727    1.0000 </r>
       <r>  -11.7613    1.0000 </r>
       <r>  -11.6957    1.0000 </r>
       <r>  -11.5156    1.0000 </r>
       <r>  -11.4681    1.0000 </r>
       <r>  -11.1057    1.0000 </r>
       <r>  -11.0960    1.0000 </r>
       <r>  -10.4930    1.0000 </r>
       <r>  -10.2847    1.0000 </r>
       <r>  -10.2647    1.0000 </r>
       <r>  -10.0334    1.0000 </r>
       <r>  -10.0106    1.0000 </r>
       <r>   -9.7197    1.0000 </r>
       <r>   -9.5777    1.0000 </r>
       <r>   -9.4945    1.0000 </r>
       <r>   -9.4932    1.0000 </r>
       <r>   -8.9324    1.0000 </r>
       <r>   -8.8287    1.0000 </r>
       <r>   -8.4384    1.0000 </r>
       <r>   -8.4345    1.0000 </r>
       <r>   -8.3389    1.0000 </r>
       <r>   -8.3365    1.0000 </r>
       <r>   -7.8879    1.0000 </r>
       <r>   -7.8874    1.0000 </r>
       <r>   -7.8709    1.0000 </r>
       <r>   -6.9486    1.0000 </r>
       <r>   -6.9453    1.0000 </r>
       <r>   -6.8150    1.0000 </r>
       <r>   -6.5655    1.0000 </r>
       <r>   -6.5555    1.0000 </r>
       <r>   -6.3103    1.0000 </r>
       <r>   -6.2967    1.0000 </r>
       <r>   -6.2823    1.0000 </r>
       <r>   -6.0564    1.0000 </r>
       <r>   -6.0469    1.0000 </r>
       <r>   -5.4691    1.0000 </r>
       <r>   -5.3025    1.0000 </r>
       <r>   -5.2968    1.0000 </r>
       <r>   -2.2803    0.0000 </r>
       <r>   -2.2731    0.0000 </r>
       <r>   -2.1233    0.0000 </r>
       <r>   -1.6128    0.0000 </r>
       <r>   -1.6001    0.0000 </r>
       <r>   -1.2914    0.0000 </r>
       <r>   -1.2751    0.0000 </r>
       <r>   -1.2112    0.0000 </r>
       <r>   -0.9298    0.0000 </r>
       <r>   -0.9296    0.0000 </r>
       <r>   -0.2045    0.0000 </r>
       <r>    0.1979    0.0000 </r>
       <r>    0.4304    0.0000 </r>
       <r>    0.5054    0.0000 </r>
       <r>    0.5202    0.0000 </r>
       <r>    0.6779    0.0000 </r>
       <r>    0.7290    0.0000 </r>
       <r>    0.8740    0.0000 </r>
       <r>    0.9494    0.0000 </r>
       <r>    1.0959    0.0000 </r>
       <r>    1.1439    0.0000 </r>
       <r>    1.2595    0.0000 </r>
       <r>    1.3808    0.0000 </r>
       <r>    1.3818    0.0000 </r>
       <r>    1.4695    0.0000 </r>
       <r>    1.5038    0.0000 </r>
       <r>    1.5306    0.0000 </r>
      </set>
      <set comment="kpoint 7">
       <r>  -24.3039    1.0000 </r>
       <r>  -24.2871    1.0000 </r>
       <r>  -24.2859    1.0000 </r>
       <r>  -22.4983    1.0000 </r>
       <r>  -22.4166    1.0000 </r>
       <r>  -22.4114    1.0000 </r>
       <r>  -21.4073    1.0000 </r>
       <r>  -21.3549    1.0000 </r>
       <r>  -19.9453    1.0000 </r>
       <r>  -19.9167    1.0000 </r>
       <r>  -19.1810    1.0000 </r>
       <r>  -19.0228    1.0000 </r>
       <r>  -18.6635    1.0000 </r>
       <r>  -17.7237    1.0000 </r>
       <r>  -17.6797    1.0000 </r>
       <r>  -16.2159    1.0000 </r>
       <r>  -16.2037    1.0000 </r>
       <r>  -16.2036    1.0000 </r>
       <r>  -16.0516    1.0000 </r>
       <r>  -16.0424    1.0000 </r>
       <r>  -16.0416    1.0000 </r>
       <r>  -14.7768    1.0000 </r>
       <r>  -14.7395    1.0000 </r>
       <r>  -14.1513    1.0000 </r>
       <r>  -14.1193    1.0000 </r>
       <r>  -13.0278    1.0000 </r>
       <r>  -12.9039    1.0000 </r>
       <r>  -12.6848    1.0000 </r>
       <r>  -12.6363    1.0000 </r>
       <r>  -12.6327    1.0000 </r>
       <r>  -11.8426    1.0000 </r>
       <r>  -11.7777    1.0000 </r>
       <r>  -11.7626    1.0000 </r>
       <r>  -11.6920    1.0000 </r>
       <r>  -11.5016    1.0000 </r>
       <r>  -11.4732    1.0000 </r>
       <r>  -11.1089    1.0000 </r>
       <r>  -11.0950    1.0000 </r>
       <r>  -10.4890    1.0000 </r>
       <r>  -10.2843    1.0000 </r>
       <r>  -10.2558    1.0000 </r>
       <r>  -10.0432    1.0000 </r>
       <r>  -10.0110    1.0000 </r>
       <r>   -9.7282    1.0000 </r>
       <r>   -9.5746    1.0000 </r>
       <r>   -9.4952    1.0000 </r>
       <r>   -9.4932    1.0000 </r>
       <r>   -8.9315    1.0000 </r>
       <r>   -8.8312    1.0000 </r>
       <r>   -8.4463    1.0000 </r>
       <r>   -8.4415    1.0000 </r>
       <r>   -8.3291    1.0000 </r>
       <r>   -8.3265    1.0000 </r>
       <r>   -7.8884    1.0000 </r>
       <r>   -7.8875    1.0000 </r>
       <r>   -7.8713    1.0000 </r>
       <r>   -6.9487    1.0000 </r>
       <r>   -6.9440    1.0000 </r>
       <r>   -6.8186    1.0000 </r>
       <r>   -6.5648    1.0000 </r>
       <r>   -6.5506    1.0000 </r>
       <r>   -6.3111    1.0000 </r>
       <r>   -6.2917    1.0000 </r>
       <r>   -6.2870    1.0000 </r>
       <r>   -6.0596    1.0000 </r>
       <r>   -6.0460    1.0000 </r>
       <r>   -5.4663    1.0000 </r>
       <r>   -5.3057    1.0000 </r>
       <r>   -5.2975    1.0000 </r>
       <r>   -2.2808    0.0000 </r>
       <r>   -2.2710    0.0000 </r>
       <r>   -2.1263    0.0000 </r>
       <r>   -1.6137    0.0000 </r>
       <r>   -1.5955    0.0000 </r>
       <r>   -1.2937    0.0000 </r>
       <r>   -1.2692    0.0000 </r>
       <r>   -1.2081    0.0000 </r>
       <r>   -0.9349    0.0000 </r>
       <r>   -0.9346    0.0000 </r>
       <r>   -0.1978    0.0000 </r>
       <r>    0.1961    0.0000 </r>
       <r>    0.4209    0.0000 </r>
       <r>    0.4936    0.0000 </r>
       <r>    0.5053    0.0000 </r>
       <r>    0.6829    0.0000 </r>
       <r>    0.7541    0.0000 </r>
       <r>    0.8774    0.0000 </r>
       <r>    0.9749    0.0000 </r>
       <r>    1.0742    0.0000 </r>
       <r>    1.1359    0.0000 </r>
       <r>    1.2347    0.0000 </r>
       <r>    1.3620    0.0000 </r>
       <r>    1.3835    0.0000 </r>
       <r>    1.4781    0.0000 </r>
       <r>    1.4963    0.0000 </r>
       <r>    1.5502    0.0000 </r>
      </set>
      <set comment="kpoint 8">
       <r>  -24.3035    1.0000 </r>
       <r>  -24.2874    1.0000 </r>
       <r>  -24.2859    1.0000 </r>
       <r>  -22.4967    1.0000 </r>
       <r>  -22.4183    1.0000 </r>
       <r>  -22.4114    1.0000 </r>
       <r>  -21.4064    1.0000 </r>
       <r>  -21.3563    1.0000 </r>
       <r>  -19.9453    1.0000 </r>
       <r>  -19.9067    1.0000 </r>
       <r>  -19.2159    1.0000 </r>
       <r>  -19.0228    1.0000 </r>
       <r>  -18.6253    1.0000 </r>
       <r>  -17.7389    1.0000 </r>
       <r>  -17.6796    1.0000 </r>
       <r>  -16.2155    1.0000 </r>
       <r>  -16.2039    1.0000 </r>
       <r>  -16.2038    1.0000 </r>
       <r>  -16.0514    1.0000 </r>
       <r>  -16.0426    1.0000 </r>
       <r>  -16.0417    1.0000 </r>
       <r>  -14.7763    1.0000 </r>
       <r>  -14.7262    1.0000 </r>
       <r>  -14.1629    1.0000 </r>
       <r>  -14.1196    1.0000 </r>
       <r>  -13.0263    1.0000 </r>
       <r>  -12.9079    1.0000 </r>
       <r>  -12.6844    1.0000 </r>
       <r>  -12.6376    1.0000 </r>
       <r>  -12.6327    1.0000 </r>
       <r>  -11.8423    1.0000 </r>
       <r>  -11.7829    1.0000 </r>
       <r>  -11.7639    1.0000 </r>
       <r>  -11.6878    1.0000 </r>
       <r>  -11.4862    1.0000 </r>
       <r>  -11.4789    1.0000 </r>
       <r>  -11.1128    1.0000 </r>
       <r>  -11.0939    1.0000 </r>
       <r>  -10.4843    1.0000 </r>
       <r>  -10.2838    1.0000 </r>
       <r>  -10.2456    1.0000 </r>
       <r>  -10.0543    1.0000 </r>
       <r>  -10.0116    1.0000 </r>
       <r>   -9.7379    1.0000 </r>
       <r>   -9.5711    1.0000 </r>
       <r>   -9.4959    1.0000 </r>
       <r>   -9.4932    1.0000 </r>
       <r>   -8.9305    1.0000 </r>
       <r>   -8.8341    1.0000 </r>
       <r>   -8.4537    1.0000 </r>
       <r>   -8.4480    1.0000 </r>
       <r>   -8.3196    1.0000 </r>
       <r>   -8.3166    1.0000 </r>
       <r>   -7.8889    1.0000 </r>
       <r>   -7.8876    1.0000 </r>
       <r>   -7.8718    1.0000 </r>
       <r>   -6.9489    1.0000 </r>
       <r>   -6.9425    1.0000 </r>
       <r>   -6.8228    1.0000 </r>
       <r>   -6.5641    1.0000 </r>
       <r>   -6.5449    1.0000 </r>
       <r>   -6.3119    1.0000 </r>
       <r>   -6.2924    1.0000 </r>
       <r>   -6.2860    1.0000 </r>
       <r>   -6.0632    1.0000 </r>
       <r>   -6.0451    1.0000 </r>
       <r>   -5.4629    1.0000 </r>
       <r>   -5.3095    1.0000 </r>
       <r>   -5.2983    1.0000 </r>
       <r>   -2.2814    0.0000 </r>
       <r>   -2.2685    0.0000 </r>
       <r>   -2.1296    0.0000 </r>
       <r>   -1.6147    0.0000 </r>
       <r>   -1.5902    0.0000 </r>
       <r>   -1.2972    0.0000 </r>
       <r>   -1.2626    0.0000 </r>
       <r>   -1.2038    0.0000 </r>
       <r>   -0.9407    0.0000 </r>
       <r>   -0.9404    0.0000 </r>
       <r>   -0.1898    0.0000 </r>
       <r>    0.1931    0.0000 </r>
       <r>    0.4073    0.0000 </r>
       <r>    0.4879    0.0000 </r>
       <r>    0.4915    0.0000 </r>
       <r>    0.6870    0.0000 </r>
       <r>    0.7798    0.0000 </r>
       <r>    0.8799    0.0000 </r>
       <r>    1.0014    0.0000 </r>
       <r>    1.0534    0.0000 </r>
       <r>    1.1281    0.0000 </r>
       <r>    1.2116    0.0000 </r>
       <r>    1.3433    0.0000 </r>
       <r>    1.3809    0.0000 </r>
       <r>    1.4806    0.0000 </r>
       <r>    1.4941    0.0000 </r>
       <r>    1.5754    0.0000 </r>
      </set>
      <set comment="kpoint 9">
       <r>  -24.3031    1.0000 </r>
       <r>  -24.2878    1.0000 </r>
       <r>  -24.2859    1.0000 </r>
       <r>  -22.4948    1.0000 </r>
       <r>  -22.4203    1.0000 </r>
       <r>  -22.4114    1.0000 </r>
       <r>  -21.4054    1.0000 </r>
       <r>  -21.3578    1.0000 </r>
       <r>  -19.9453    1.0000 </r>
       <r>  -19.8954    1.0000 </r>
       <r>  -19.2505    1.0000 </r>
       <r>  -19.0229    1.0000 </r>
       <r>  -18.5868    1.0000 </r>
       <r>  -17.7561    1.0000 </r>
       <r>  -17.6796    1.0000 </r>
       <r>  -16.2151    1.0000 </r>
       <r>  -16.2042    1.0000 </r>
       <r>  -16.2040    1.0000 </r>
       <r>  -16.0513    1.0000 </r>
       <r>  -16.0429    1.0000 </r>
       <r>  -16.0417    1.0000 </r>
       <r>  -14.7758    1.0000 </r>
       <r>  -14.7113    1.0000 </r>
       <r>  -14.1760    1.0000 </r>
       <r>  -14.1200    1.0000 </r>
       <r>  -13.0245    1.0000 </r>
       <r>  -12.9124    1.0000 </r>
       <r>  -12.6839    1.0000 </r>
       <r>  -12.6390    1.0000 </r>
       <r>  -12.6327    1.0000 </r>
       <r>  -11.8418    1.0000 </r>
       <r>  -11.7880    1.0000 </r>
       <r>  -11.7652    1.0000 </r>
       <r>  -11.6832    1.0000 </r>
       <r>  -11.4852    1.0000 </r>
       <r>  -11.4700    1.0000 </r>
       <r>  -11.1172    1.0000 </r>
       <r>  -11.0927    1.0000 </r>
       <r>  -10.4789    1.0000 </r>
       <r>  -10.2832    1.0000 </r>
       <r>  -10.2342    1.0000 </r>
       <r>  -10.0666    1.0000 </r>
       <r>  -10.0123    1.0000 </r>
       <r>   -9.7487    1.0000 </r>
       <r>   -9.5675    1.0000 </r>
       <r>   -9.4968    1.0000 </r>
       <r>   -9.4932    1.0000 </r>
       <r>   -8.9293    1.0000 </r>
       <r>   -8.8372    1.0000 </r>
       <r>   -8.4606    1.0000 </r>
       <r>   -8.4540    1.0000 </r>
       <r>   -8.3103    1.0000 </r>
       <r>   -8.3071    1.0000 </r>
       <r>   -7.8894    1.0000 </r>
       <r>   -7.8877    1.0000 </r>
       <r>   -7.8723    1.0000 </r>
       <r>   -6.9491    1.0000 </r>
       <r>   -6.9408    1.0000 </r>
       <r>   -6.8273    1.0000 </r>
       <r>   -6.5633    1.0000 </r>
       <r>   -6.5385    1.0000 </r>
       <r>   -6.3130    1.0000 </r>
       <r>   -6.2984    1.0000 </r>
       <r>   -6.2797    1.0000 </r>
       <r>   -6.0673    1.0000 </r>
       <r>   -6.0441    1.0000 </r>
       <r>   -5.4592    1.0000 </r>
       <r>   -5.3137    1.0000 </r>
       <r>   -5.2991    1.0000 </r>
       <r>   -2.2821    0.0000 </r>
       <r>   -2.2657    0.0000 </r>
       <r>   -2.1333    0.0000 </r>
       <r>   -1.6158    0.0000 </r>
       <r>   -1.5842    0.0000 </r>
       <r>   -1.3018    0.0000 </r>
       <r>   -1.2552    0.0000 </r>
       <r>   -1.1981    0.0000 </r>
       <r>   -0.9473    0.0000 </r>
       <r>   -0.9469    0.0000 </r>
       <r>   -0.1807    0.0000 </r>
       <r>    0.1883    0.0000 </r>
       <r>    0.3918    0.0000 </r>
       <r>    0.4787    0.0000 </r>
       <r>    0.4867    0.0000 </r>
       <r>    0.6907    0.0000 </r>
       <r>    0.8059    0.0000 </r>
       <r>    0.8807    0.0000 </r>
       <r>    1.0261    0.0000 </r>
       <r>    1.0356    0.0000 </r>
       <r>    1.1211    0.0000 </r>
       <r>    1.1917    0.0000 </r>
       <r>    1.3251    0.0000 </r>
       <r>    1.3751    0.0000 </r>
       <r>    1.4638    0.0000 </r>
       <r>    1.5179    0.0000 </r>
       <r>    1.5943    0.0000 </r>
      </set>
      <set comment="kpoint 10">
       <r>  -24.3027    1.0000 </r>
       <r>  -24.2883    1.0000 </r>
       <r>  -24.2859    1.0000 </r>
       <r>  -22.4928    1.0000 </r>
       <r>  -22.4224    1.0000 </r>
       <r>  -22.4114    1.0000 </r>
       <r>  -21.4043    1.0000 </r>
       <r>  -21.3595    1.0000 </r>
       <r>  -19.9453    1.0000 </r>
       <r>  -19.8827    1.0000 </r>
       <r>  -19.2845    1.0000 </r>
       <r>  -19.0229    1.0000 </r>
       <r>  -18.5483    1.0000 </r>
       <r>  -17.7751    1.0000 </r>
       <r>  -17.6795    1.0000 </r>
       <r>  -16.2147    1.0000 </r>
       <r>  -16.2045    1.0000 </r>
       <r>  -16.2042    1.0000 </r>
       <r>  -16.0511    1.0000 </r>
       <r>  -16.0431    1.0000 </r>
       <r>  -16.0417    1.0000 </r>
       <r>  -14.7753    1.0000 </r>
       <r>  -14.6949    1.0000 </r>
       <r>  -14.1904    1.0000 </r>
       <r>  -14.1204    1.0000 </r>
       <r>  -13.0225    1.0000 </r>
       <r>  -12.9172    1.0000 </r>
       <r>  -12.6832    1.0000 </r>
       <r>  -12.6405    1.0000 </r>
       <r>  -12.6327    1.0000 </r>
       <r>  -11.8413    1.0000 </r>
       <r>  -11.7929    1.0000 </r>
       <r>  -11.7664    1.0000 </r>
       <r>  -11.6783    1.0000 </r>
       <r>  -11.4920    1.0000 </r>
       <r>  -11.4531    1.0000 </r>
       <r>  -11.1222    1.0000 </r>
       <r>  -11.0915    1.0000 </r>
       <r>  -10.4730    1.0000 </r>
       <r>  -10.2824    1.0000 </r>
       <r>  -10.2216    1.0000 </r>
       <r>  -10.0797    1.0000 </r>
       <r>  -10.0132    1.0000 </r>
       <r>   -9.7604    1.0000 </r>
       <r>   -9.5636    1.0000 </r>
       <r>   -9.4978    1.0000 </r>
       <r>   -9.4932    1.0000 </r>
       <r>   -8.9279    1.0000 </r>
       <r>   -8.8407    1.0000 </r>
       <r>   -8.4670    1.0000 </r>
       <r>   -8.4595    1.0000 </r>
       <r>   -8.3014    1.0000 </r>
       <r>   -8.2980    1.0000 </r>
       <r>   -7.8900    1.0000 </r>
       <r>   -7.8878    1.0000 </r>
       <r>   -7.8728    1.0000 </r>
       <r>   -6.9492    1.0000 </r>
       <r>   -6.9389    1.0000 </r>
       <r>   -6.8321    1.0000 </r>
       <r>   -6.5625    1.0000 </r>
       <r>   -6.5314    1.0000 </r>
       <r>   -6.3146    1.0000 </r>
       <r>   -6.3045    1.0000 </r>
       <r>   -6.2730    1.0000 </r>
       <r>   -6.0718    1.0000 </r>
       <r>   -6.0431    1.0000 </r>
       <r>   -5.4550    1.0000 </r>
       <r>   -5.3183    1.0000 </r>
       <r>   -5.2999    1.0000 </r>
       <r>   -2.2828    0.0000 </r>
       <r>   -2.2626    0.0000 </r>
       <r>   -2.1373    0.0000 </r>
       <r>   -1.6168    0.0000 </r>
       <r>   -1.5776    0.0000 </r>
       <r>   -1.3075    0.0000 </r>
       <r>   -1.2473    0.0000 </r>
       <r>   -1.1913    0.0000 </r>
       <r>   -0.9547    0.0000 </r>
       <r>   -0.9539    0.0000 </r>
       <r>   -0.1704    0.0000 </r>
       <r>    0.1812    0.0000 </r>
       <r>    0.3766    0.0000 </r>
       <r>    0.4670    0.0000 </r>
       <r>    0.4880    0.0000 </r>
       <r>    0.6943    0.0000 </r>
       <r>    0.8323    0.0000 </r>
       <r>    0.8790    0.0000 </r>
       <r>    1.0177    0.0000 </r>
       <r>    1.0500    0.0000 </r>
       <r>    1.1150    0.0000 </r>
       <r>    1.1780    0.0000 </r>
       <r>    1.3078    0.0000 </r>
       <r>    1.3672    0.0000 </r>
       <r>    1.4471    0.0000 </r>
       <r>    1.5494    0.0000 </r>
       <r>    1.6001    0.0000 </r>
      </set>
      <set comment="kpoint 11">
       <r>  -24.3023    1.0000 </r>
       <r>  -24.2888    1.0000 </r>
       <r>  -24.2859    1.0000 </r>
       <r>  -22.4906    1.0000 </r>
       <r>  -22.4247    1.0000 </r>
       <r>  -22.4114    1.0000 </r>
       <r>  -21.4032    1.0000 </r>
       <r>  -21.3612    1.0000 </r>
       <r>  -19.9453    1.0000 </r>
       <r>  -19.8690    1.0000 </r>
       <r>  -19.3179    1.0000 </r>
       <r>  -19.0229    1.0000 </r>
       <r>  -18.5103    1.0000 </r>
       <r>  -17.7955    1.0000 </r>
       <r>  -17.6795    1.0000 </r>
       <r>  -16.2142    1.0000 </r>
       <r>  -16.2049    1.0000 </r>
       <r>  -16.2044    1.0000 </r>
       <r>  -16.0509    1.0000 </r>
       <r>  -16.0434    1.0000 </r>
       <r>  -16.0417    1.0000 </r>
       <r>  -14.7747    1.0000 </r>
       <r>  -14.6774    1.0000 </r>
       <r>  -14.2061    1.0000 </r>
       <r>  -14.1208    1.0000 </r>
       <r>  -13.0203    1.0000 </r>
       <r>  -12.9222    1.0000 </r>
       <r>  -12.6824    1.0000 </r>
       <r>  -12.6421    1.0000 </r>
       <r>  -12.6327    1.0000 </r>
       <r>  -11.8408    1.0000 </r>
       <r>  -11.7976    1.0000 </r>
       <r>  -11.7676    1.0000 </r>
       <r>  -11.6731    1.0000 </r>
       <r>  -11.4990    1.0000 </r>
       <r>  -11.4360    1.0000 </r>
       <r>  -11.1277    1.0000 </r>
       <r>  -11.0904    1.0000 </r>
       <r>  -10.4666    1.0000 </r>
       <r>  -10.2815    1.0000 </r>
       <r>  -10.2081    1.0000 </r>
       <r>  -10.0936    1.0000 </r>
       <r>  -10.0144    1.0000 </r>
       <r>   -9.7727    1.0000 </r>
       <r>   -9.5597    1.0000 </r>
       <r>   -9.4990    1.0000 </r>
       <r>   -9.4932    1.0000 </r>
       <r>   -8.9263    1.0000 </r>
       <r>   -8.8443    1.0000 </r>
       <r>   -8.4727    1.0000 </r>
       <r>   -8.4644    1.0000 </r>
       <r>   -8.2930    1.0000 </r>
       <r>   -8.2895    1.0000 </r>
       <r>   -7.8906    1.0000 </r>
       <r>   -7.8880    1.0000 </r>
       <r>   -7.8733    1.0000 </r>
       <r>   -6.9494    1.0000 </r>
       <r>   -6.9367    1.0000 </r>
       <r>   -6.8372    1.0000 </r>
       <r>   -6.5617    1.0000 </r>
       <r>   -6.5238    1.0000 </r>
       <r>   -6.3177    1.0000 </r>
       <r>   -6.3096    1.0000 </r>
       <r>   -6.2659    1.0000 </r>
       <r>   -6.0767    1.0000 </r>
       <r>   -6.0420    1.0000 </r>
       <r>   -5.4505    1.0000 </r>
       <r>   -5.3233    1.0000 </r>
       <r>   -5.3008    1.0000 </r>
       <r>   -2.2836    0.0000 </r>
       <r>   -2.2593    0.0000 </r>
       <r>   -2.1415    0.0000 </r>
       <r>   -1.6179    0.0000 </r>
       <r>   -1.5704    0.0000 </r>
       <r>   -1.3142    0.0000 </r>
       <r>   -1.2389    0.0000 </r>
       <r>   -1.1833    0.0000 </r>
       <r>   -0.9627    0.0000 </r>
       <r>   -0.9614    0.0000 </r>
       <r>   -0.1590    0.0000 </r>
       <r>    0.1715    0.0000 </r>
       <r>    0.3635    0.0000 </r>
       <r>    0.4563    0.0000 </r>
       <r>    0.4909    0.0000 </r>
       <r>    0.6984    0.0000 </r>
       <r>    0.8585    0.0000 </r>
       <r>    0.8741    0.0000 </r>
       <r>    1.0044    0.0000 </r>
       <r>    1.0644    0.0000 </r>
       <r>    1.1104    0.0000 </r>
       <r>    1.1750    0.0000 </r>
       <r>    1.2916    0.0000 </r>
       <r>    1.3581    0.0000 </r>
       <r>    1.4310    0.0000 </r>
       <r>    1.5924    0.0000 </r>
       <r>    1.6074    0.0000 </r>
      </set>
      <set comment="kpoint 12">
       <r>  -24.3018    1.0000 </r>
       <r>  -24.2893    1.0000 </r>
       <r>  -24.2859    1.0000 </r>
       <r>  -22.4882    1.0000 </r>
       <r>  -22.4271    1.0000 </r>
       <r>  -22.4114    1.0000 </r>
       <r>  -21.4019    1.0000 </r>
       <r>  -21.3630    1.0000 </r>
       <r>  -19.9453    1.0000 </r>
       <r>  -19.8543    1.0000 </r>
       <r>  -19.3502    1.0000 </r>
       <r>  -19.0229    1.0000 </r>
       <r>  -18.4729    1.0000 </r>
       <r>  -17.8172    1.0000 </r>
       <r>  -17.6794    1.0000 </r>
       <r>  -16.2137    1.0000 </r>
       <r>  -16.2053    1.0000 </r>
       <r>  -16.2046    1.0000 </r>
       <r>  -16.0506    1.0000 </r>
       <r>  -16.0437    1.0000 </r>
       <r>  -16.0417    1.0000 </r>
       <r>  -14.7742    1.0000 </r>
       <r>  -14.6589    1.0000 </r>
       <r>  -14.2228    1.0000 </r>
       <r>  -14.1212    1.0000 </r>
       <r>  -13.0179    1.0000 </r>
       <r>  -12.9274    1.0000 </r>
       <r>  -12.6815    1.0000 </r>
       <r>  -12.6438    1.0000 </r>
       <r>  -12.6327    1.0000 </r>
       <r>  -11.8401    1.0000 </r>
       <r>  -11.8019    1.0000 </r>
       <r>  -11.7687    1.0000 </r>
       <r>  -11.6678    1.0000 </r>
[...]
       <r>   -6.9481    1.0000 </r>
       <r>   -6.8060    1.0000 </r>
       <r>   -6.5672    1.0000 </r>
       <r>   -6.5670    1.0000 </r>
       <r>   -6.3088    1.0000 </r>
       <r>   -6.3086    1.0000 </r>
       <r>   -6.2712    1.0000 </r>
       <r>   -6.0491    1.0000 </r>
       <r>   -6.0490    1.0000 </r>
       <r>   -5.4757    1.0000 </r>
       <r>   -5.2951    1.0000 </r>
       <r>   -5.2950    1.0000 </r>
       <r>   -2.2788    0.0000 </r>
       <r>   -2.2782    0.0000 </r>
       <r>   -2.1163    0.0000 </r>
       <r>   -1.6108    0.0000 </r>
       <r>   -1.6104    0.0000 </r>
       <r>   -1.2894    0.0000 </r>
       <r>   -1.2890    0.0000 </r>
       <r>   -1.2150    0.0000 </r>
       <r>   -0.9182    0.0000 </r>
       <r>   -0.9177    0.0000 </r>
       <r>   -0.2200    0.0000 </r>
       <r>    0.1995    0.0000 </r>
       <r>    0.4387    0.0000 </r>
       <r>    0.5952    0.0000 </r>
       <r>    0.5953    0.0000 </r>
       <r>    0.6301    0.0000 </r>
       <r>    0.6301    0.0000 </r>
       <r>    0.8625    0.0000 </r>
       <r>    0.8798    0.0000 </r>
       <r>    1.1702    0.0000 </r>
       <r>    1.1704    0.0000 </r>
       <r>    1.3531    0.0000 </r>
       <r>    1.3535    0.0000 </r>
       <r>    1.4293    0.0000 </r>
       <r>    1.4545    0.0000 </r>
       <r>    1.4721    0.0000 </r>
       <r>    1.4722    0.0000 </r>
      </set>
     </set>
    </set>
   </array>
  </eigenvalues>
  <separator name="orbital magnetization" >
   <v name="MAGDIPOLOUT">      0.00000000      0.00000000      0.00000000</v>
  </separator>
  <dos>
   <i name="efermi">     -5.19278501 </i>
   <total>
    <array>
     <dimension dim="1">gridpoints</dimension>
     <dimension dim="2">spin</dimension>
     <field>energy</field>
     <field>total</field>
     <field>integrated</field>
     <set>
      <set comment="spin 1">
       <r>   -25.6040     0.0000     0.0000 </r>
       <r>   -25.5087     0.0000     0.0000 </r>
       <r>   -25.4134     0.0000     0.0000 </r>
       <r>   -25.3182     0.0000     0.0000 </r>
       <r>   -25.2229     0.0000     0.0000 </r>
       <r>   -25.1276     0.0000     0.0000 </r>
       <r>   -25.0324     0.0000     0.0000 </r>
       <r>   -24.9371     0.0000     0.0000 </r>
       <r>   -24.8418     0.0000     0.0000 </r>
       <r>   -24.7466     0.0000     0.0000 </r>
       <r>   -24.6513     0.0000     0.0000 </r>
       <r>   -24.5560     0.0000     0.0000 </r>
       <r>   -24.4607     0.0000     0.0000 </r>
       <r>   -24.3655     0.0000     0.0000 </r>
       <r>   -24.2702    62.6250     5.9662 </r>
       <r>   -24.1749     0.0000     6.0000 </r>
       <r>   -24.0797     0.0000     6.0000 </r>
       <r>   -23.9844     0.0000     6.0000 </r>
       <r>   -23.8891     0.0000     6.0000 </r>
       <r>   -23.7939     0.0000     6.0000 </r>
       <r>   -23.6986     0.0000     6.0000 </r>
       <r>   -23.6033     0.0000     6.0000 </r>
       <r>   -23.5081     0.0000     6.0000 </r>
       <r>   -23.4128     0.0000     6.0000 </r>
       <r>   -23.3175     0.0000     6.0000 </r>
       <r>   -23.2223     0.0000     6.0000 </r>
       <r>   -23.1270     0.0000     6.0000 </r>
       <r>   -23.0317     0.0000     6.0000 </r>
       <r>   -22.9365     0.0000     6.0000 </r>
       <r>   -22.8412     0.0000     6.0000 </r>
       <r>   -22.7459     0.0000     6.0000 </r>
       <r>   -22.6507     0.0000     6.0000 </r>
       <r>   -22.5554     0.0000     6.0000 </r>
       <r>   -22.4601    19.9431     7.8999 </r>
       <r>   -22.3649    35.6579    12.0000 </r>
       <r>   -22.2696     0.0000    12.0000 </r>
       <r>   -22.1743     0.0000    12.0000 </r>
       <r>   -22.0790     0.0000    12.0000 </r>
       <r>   -21.9838     0.0000    12.0000 </r>
       <r>   -21.8885     0.0000    12.0000 </r>
       <r>   -21.7932     0.0000    12.0000 </r>
       <r>   -21.6980     0.0000    12.0000 </r>
       <r>   -21.6027     0.0000    12.0000 </r>
       <r>   -21.5074     0.0000    12.0000 </r>
       <r>   -21.4122     2.0068    12.1912 </r>
       <r>   -21.3169    32.1590    16.0000 </r>
       <r>   -21.2216     0.0000    16.0000 </r>
       <r>   -21.1264     0.0000    16.0000 </r>
       <r>   -21.0311     0.0000    16.0000 </r>
       <r>   -20.9358     0.0000    16.0000 </r>
       <r>   -20.8406     0.0000    16.0000 </r>
       <r>   -20.7453     0.0000    16.0000 </r>
       <r>   -20.6500     0.0000    16.0000 </r>
       <r>   -20.5548     0.0000    16.0000 </r>
       <r>   -20.4595     0.0000    16.0000 </r>
       <r>   -20.3642     0.0000    16.0000 </r>
       <r>   -20.2690     0.0000    16.0000 </r>
       <r>   -20.1737     0.0000    16.0000 </r>
       <r>   -20.0784     0.0000    16.0000 </r>
       <r>   -19.9832     0.0000    16.0000 </r>
       <r>   -19.8879    26.9458    18.5671 </r>
       <r>   -19.7926     3.3127    18.9491 </r>
       <r>   -19.6973     7.4491    19.7102 </r>
       <r>   -19.6021     4.4455    20.2236 </r>
       <r>   -19.5068     6.3972    20.9096 </r>
       <r>   -19.4115     1.9947    21.1567 </r>
       <r>   -19.3163     1.6015    21.3526 </r>
       <r>   -19.2210     1.5316    21.5126 </r>
       <r>   -19.1257     1.3599    21.6962 </r>
       <r>   -19.0305     4.9066    22.2008 </r>
       <r>   -18.9352     0.0000    24.0000 </r>
       <r>   -18.8399     0.0871    24.0083 </r>
       <r>   -18.7447     2.1315    24.2701 </r>
       <r>   -18.6494     1.3918    24.4326 </r>
       <r>   -18.5541     1.4760    24.5740 </r>
       <r>   -18.4589     1.4231    24.7360 </r>
       <r>   -18.3636     1.5030    24.9099 </r>
       <r>   -18.2683     3.3971    25.2570 </r>
       <r>   -18.1731     3.5940    25.7425 </r>
       <r>   -18.0778     3.5642    26.1396 </r>
       <r>   -17.9825     3.7705    26.5592 </r>
       <r>   -17.8873     4.5543    27.1010 </r>
       <r>   -17.7920     2.3491    27.3571 </r>
       <r>   -17.6967     3.7415    27.7567 </r>
       <r>   -17.6014    22.2346    30.0000 </r>
       <r>   -17.5062     0.0000    30.0000 </r>
       <r>   -17.4109     0.0000    30.0000 </r>
       <r>   -17.3156     0.0000    30.0000 </r>
       <r>   -17.2204     0.0000    30.0000 </r>
       <r>   -17.1251     0.0000    30.0000 </r>
       <r>   -17.0298     0.0000    30.0000 </r>
       <r>   -16.9346     0.0000    30.0000 </r>
       <r>   -16.8393     0.0000    30.0000 </r>
       <r>   -16.7440     0.0000    30.0000 </r>
       <r>   -16.6488     0.0000    30.0000 </r>
       <r>   -16.5535     0.0000    30.0000 </r>
       <r>   -16.4582     0.0000    30.0000 </r>
       <r>   -16.3630     0.0000    30.0000 </r>
       <r>   -16.2677     0.0000    30.0000 </r>
       <r>   -16.1724    62.9801    36.0000 </r>
       <r>   -16.0772     0.0017    36.0002 </r>
       <r>   -15.9819    62.9785    42.0000 </r>
       <r>   -15.8866     0.0000    42.0000 </r>
       <r>   -15.7914     0.0000    42.0000 </r>
       <r>   -15.6961     0.0000    42.0000 </r>
       <r>   -15.6008     0.0000    42.0000 </r>
       <r>   -15.5056     0.0000    42.0000 </r>
       <r>   -15.4103     0.0000    42.0000 </r>
       <r>   -15.3150     0.0000    42.0000 </r>
       <r>   -15.2197     0.0000    42.0000 </r>
       <r>   -15.1245     0.0000    42.0000 </r>
       <r>   -15.0292     0.0000    42.0000 </r>
       <r>   -14.9339     0.0000    42.0000 </r>
       <r>   -14.8387     0.0000    42.0000 </r>
       <r>   -14.7434    25.0313    44.3847 </r>
       <r>   -14.6481     3.3274    44.7509 </r>
       <r>   -14.5529     2.8492    45.0715 </r>
       <r>   -14.4576     5.8412    45.8568 </r>
       <r>   -14.3623     5.4014    46.4480 </r>
       <r>   -14.2671     5.9188    47.1311 </r>
       <r>   -14.1718     3.0387    47.4895 </r>
       <r>   -14.0765    25.5411    50.0000 </r>
       <r>   -13.9813     0.0000    50.0000 </r>
       <r>   -13.8860     0.0000    50.0000 </r>
       <r>   -13.7907     0.0000    50.0000 </r>
       <r>   -13.6955     0.0000    50.0000 </r>
       <r>   -13.6002     0.0000    50.0000 </r>
       <r>   -13.5049     0.0000    50.0000 </r>
       <r>   -13.4097     0.0000    50.0000 </r>
       <r>   -13.3144     0.0000    50.0000 </r>
       <r>   -13.2191     0.0000    50.0000 </r>
       <r>   -13.1239     0.0000    50.0000 </r>
       <r>   -13.0286     3.4968    50.3331 </r>
       <r>   -12.9333    25.3218    53.2136 </r>
       <r>   -12.8380     6.2928    54.0000 </r>
       <r>   -12.7428     0.0000    54.0000 </r>
       <r>   -12.6475    33.0116    57.1449 </r>
       <r>   -12.5522     0.0000    60.0000 </r>
       <r>   -12.4570     0.0000    60.0000 </r>
       <r>   -12.3617     0.0000    60.0000 </r>
       <r>   -12.2664     0.0000    60.0000 </r>
       <r>   -12.1712     0.0000    60.0000 </r>
       <r>   -12.0759     0.0000    60.0000 </r>
       <r>   -11.9806     0.0000    60.0000 </r>
       <r>   -11.8854     0.0000    60.0000 </r>
       <r>   -11.7901    36.2347    63.4520 </r>
       <r>   -11.6948    26.8832    66.3383 </r>
       <r>   -11.5996    14.4821    67.9469 </r>
       <r>   -11.5043    15.7948    69.7051 </r>
       <r>   -11.4090     8.8746    70.7461 </r>
       <r>   -11.3138     6.4464    71.4142 </r>
       <r>   -11.2185     6.8548    72.2198 </r>
       <r>   -11.1232    11.2253    73.4036 </r>
       <r>   -11.0280    24.8356    76.0000 </r>
       <r>   -10.9327     0.0000    76.0000 </r>
       <r>   -10.8374     0.0000    76.0000 </r>
       <r>   -10.7421     0.0000    76.0000 </r>
       <r>   -10.6469     0.0000    76.0000 </r>
       <r>   -10.5516     0.0000    76.0000 </r>
       <r>   -10.4563     7.7732    76.7405 </r>
       <r>   -10.3611    10.4102    77.8588 </r>
       <r>   -10.2658    22.1414    80.1761 </r>
       <r>   -10.1705    14.4528    81.8104 </r>
       <r>   -10.0753    14.7053    83.3345 </r>
       <r>    -9.9800    23.7965    85.7671 </r>
       <r>    -9.8847     6.0189    86.4734 </r>
       <r>    -9.7895     7.0135    87.2686 </r>
       <r>    -9.6942     6.6281    87.9651 </r>
       <r>    -9.5989     0.0606    88.0058 </r>
       <r>    -9.5037    31.9376    91.2435 </r>
       <r>    -9.4084     0.0000    94.0000 </r>
       <r>    -9.3131     0.0000    94.0000 </r>
       <r>    -9.2179     0.0000    94.0000 </r>
       <r>    -9.1226     0.0000    94.0000 </r>
       <r>    -9.0273     0.0000    94.0000 </r>
       <r>    -8.9321     3.6175    94.3446 </r>
       <r>    -8.8368    26.8761    97.4952 </r>
       <r>    -8.7415     0.0000    98.0000 </r>
       <r>    -8.6463     0.0000    98.0000 </r>
       <r>    -8.5510     5.1591    98.4915 </r>
       <r>    -8.4557    14.8686   100.0834 </r>
       <r>    -8.3604    20.5582   102.2928 </r>
       <r>    -8.2652    18.6963   104.5147 </r>
       <r>    -8.1699    10.8295   106.0000 </r>
       <r>    -8.0746     0.0000   106.0000 </r>
       <r>    -7.9794     0.0000   106.0000 </r>
       <r>    -7.8841    34.2194   109.2600 </r>
       <r>    -7.7888     0.0000   112.0000 </r>
       <r>    -7.6936     0.0000   112.0000 </r>
       <r>    -7.5983     0.0000   112.0000 </r>
       <r>    -7.5030     0.0000   112.0000 </r>
       <r>    -7.4078     0.0000   112.0000 </r>
       <r>    -7.3125     0.0000   112.0000 </r>
       <r>    -7.2172     0.0000   112.0000 </r>
       <r>    -7.1220     0.0000   112.0000 </r>
       <r>    -7.0267     0.0000   112.0000 </r>
       <r>    -6.9314    29.0214   114.7648 </r>
       <r>    -6.8362    21.2521   117.3598 </r>
       <r>    -6.7409     4.5437   118.0000 </r>
       <r>    -6.6456     0.0000   118.0000 </r>
       <r>    -6.5504    21.4310   120.0417 </r>
       <r>    -6.4551     9.1356   121.4372 </r>
       <r>    -6.3598    13.7022   123.0065 </r>
       <r>    -6.2646    36.6588   126.6258 </r>
       <r>    -6.1693    11.7155   127.9162 </r>
       <r>    -6.0740    12.8173   129.3879 </r>
       <r>    -5.9787    24.8358   132.0000 </r>
       <r>    -5.8835     0.0000   132.0000 </r>
       <r>    -5.7882     0.0000   132.0000 </r>
       <r>    -5.6929     0.0000   132.0000 </r>
       <r>    -5.5977     0.0000   132.0000 </r>
       <r>    -5.5024     0.0001   132.0000 </r>
       <r>    -5.4071    14.9708   133.4263 </r>
       <r>    -5.3119    21.8786   135.9187 </r>
       <r>    -5.2166     4.8481   138.0000 </r>
       <r>    -5.1213     0.0000   138.0000 </r>
       <r>    -5.0261     0.0000   138.0000 </r>
       <r>    -4.9308     0.0000   138.0000 </r>
       <r>    -4.8355     0.0000   138.0000 </r>
       <r>    -4.7403     0.0000   138.0000 </r>
       <r>    -4.6450     0.0000   138.0000 </r>
       <r>    -4.5497     0.0000   138.0000 </r>
       <r>    -4.4545     0.0000   138.0000 </r>
       <r>    -4.3592     0.0000   138.0000 </r>
       <r>    -4.2639     0.0000   138.0000 </r>
       <r>    -4.1687     0.0000   138.0000 </r>
       <r>    -4.0734     0.0000   138.0000 </r>
       <r>    -3.9781     0.0000   138.0000 </r>
       <r>    -3.8828     0.0000   138.0000 </r>
       <r>    -3.7876     0.0000   138.0000 </r>
       <r>    -3.6923     0.0000   138.0000 </r>
       <r>    -3.5970     0.0000   138.0000 </r>
       <r>    -3.5018     0.0000   138.0000 </r>
       <r>    -3.4065     0.0000   138.0000 </r>
       <r>    -3.3112     0.0000   138.0000 </r>
       <r>    -3.2160     0.0000   138.0000 </r>
       <r>    -3.1207     0.0000   138.0000 </r>
       <r>    -3.0254     0.0000   138.0000 </r>
       <r>    -2.9302     0.0000   138.0000 </r>
       <r>    -2.8349     0.0000   138.0000 </r>
       <r>    -2.7396     0.0000   138.0000 </r>
       <r>    -2.6444     0.0000   138.0000 </r>
       <r>    -2.5491     0.0000   138.0000 </r>
       <r>    -2.4538     0.0000   138.0000 </r>
       <r>    -2.3586     0.0000   138.0000 </r>
       <r>    -2.2633    26.7958   140.5528 </r>
       <r>    -2.1680    21.4582   142.8784 </r>
       <r>    -2.0728     8.3935   144.0000 </r>
       <r>    -1.9775     0.0000   144.0000 </r>
       <r>    -1.8822     0.0000   144.0000 </r>
       <r>    -1.7870     0.0000   144.0000 </r>
       <r>    -1.6917     0.0000   144.0000 </r>
       <r>    -1.5964    24.8935   146.3716 </r>
       <r>    -1.5011     9.2007   147.4434 </r>
       <r>    -1.4059     7.9240   148.3553 </r>
       <r>    -1.3106     9.3354   149.3899 </r>
       <r>    -1.2153    14.7686   150.9750 </r>
       <r>    -1.1201    16.8493   153.0059 </r>
       <r>    -1.0248    21.5929   155.4582 </r>
       <r>    -0.9295    14.2119   157.3546 </r>
       <r>    -0.8343     0.0000   158.0000 </r>
       <r>    -0.7390     0.0000   158.0000 </r>
       <r>    -0.6437     0.0000   158.0000 </r>
       <r>    -0.5485     0.0000   158.0000 </r>
       <r>    -0.4532     0.0000   158.0000 </r>
       <r>    -0.3579     0.0000   158.0000 </r>
       <r>    -0.2627     0.0000   158.0000 </r>
       <r>    -0.1674     6.3919   158.6089 </r>
       <r>    -0.0721     3.4243   159.0263 </r>
       <r>     0.0231     9.4165   159.9971 </r>
       <r>     0.1184     6.8369   161.0866 </r>
       <r>     0.2137    12.1080   162.3202 </r>
       <r>     0.3089     3.8497   162.8001 </r>
       <r>     0.4042     7.1293   163.5464 </r>
       <r>     0.4995    23.4114   166.0648 </r>
       <r>     0.5947    10.6821   167.9201 </r>
       <r>     0.6900     7.2031   168.6862 </r>
       <r>     0.7853     9.7089   169.8253 </r>
       <r>     0.8806    26.0801   172.5860 </r>
       <r>     0.9758    21.0580   175.1069 </r>
       <r>     1.0711    20.3346   177.5376 </r>
       <r>     1.1664    24.5957   180.1442 </r>
       <r>     1.2616    21.9557   182.7602 </r>
       <r>     1.3569    17.6824   184.7188 </r>
       <r>     1.4522    21.1204   187.0800 </r>
       <r>     1.5474    28.9463   190.1927 </r>
       <r>     1.6427    10.4820   191.6326 </r>
       <r>     1.7380     2.4417   192.0000 </r>
       <r>     1.8332     0.0000   192.0000 </r>
       <r>     1.9285     0.0000   192.0000 </r>
       <r>     2.0238     0.0000   192.0000 </r>
       <r>     2.1190     0.0000   192.0000 </r>
       <r>     2.2143     0.0000   192.0000 </r>
       <r>     2.3096     0.0000   192.0000 </r>
       <r>     2.4048     0.0000   192.0000 </r>
       <r>     2.5001     0.0000   192.0000 </r>
       <r>     2.5954     0.0000   192.0000 </r>
       <r>     2.6906     0.0000   192.0000 </r>
       <r>     2.7859     0.0000   192.0000 </r>
       <r>     2.8812     0.0000   192.0000 </r>
       <r>     2.9765     0.0000   192.0000 </r>
      </set>
     </set>
    </array>
   </total>
  </dos>
 </calculation>
 <structure name="finalpos" >
  <crystal>
   <varray name="basis" >
    <v>      14.69449958      -0.00082958       0.00000000 </v>
    <v>      -7.34796822      12.72658734       0.00000000 </v>
    <v>       0.00000000       0.00000000      20.00000000 </v>
   </varray>
   <i name="volume">   3740.09473104 </i>
   <varray name="rec_basis" >
    <v>       0.06805489       0.03929295       0.00000000 </v>
    <v>       0.00000444       0.07857822       0.00000000 </v>
    <v>       0.00000000       0.00000000       0.05000000 </v>
   </varray>
  </crystal>
  <varray name="positions" >
   <v>       0.54402480       0.08821614       0.60747507 </v>
   <v>       0.76443261       0.23562467       0.49944472 </v>
   <v>       0.47115445       0.23554778       0.49951825 </v>
   <v>       0.91176288       0.45597489       0.60747033 </v>
   <v>       0.54394889       0.45574879       0.60748177 </v>
   <v>       0.76437711       0.52881818       0.49947297 </v>
   <v>       0.23562289       0.47118182       0.50052703 </v>
   <v>       0.23556739       0.76437533       0.50055528 </v>
   <v>       0.52884555       0.76445222       0.50048175 </v>
   <v>       0.08823712       0.54402511       0.39252967 </v>
   <v>       0.45605111       0.54425121       0.39251823 </v>
   <v>       0.45597520       0.91178386       0.39252493 </v>
   <v>       0.52854369       0.05705744       0.43974533 </v>
   <v>       0.05705406       0.52853927       0.56025724 </v>
   <v>       0.47144929       0.52851106       0.56025176 </v>
   <v>       0.47145631       0.94294256       0.56025467 </v>
   <v>       0.94294594       0.47146073       0.43974276 </v>
   <v>       0.52855071       0.47148894       0.43974824 </v>
   <v>       0.61155594       0.22311856       0.49996617 </v>
   <v>       0.55299533       0.10601003       0.49935149 </v>
   <v>       0.52400803       0.04808304       0.55911893 </v>
   <v>       0.55690240       0.27843847       0.50012170 </v>
   <v>       0.72154118       0.27847531       0.50008431 </v>
   <v>       0.61152718       0.38841375       0.49997361 </v>
   <v>       0.72151277       0.44307477       0.50009842 </v>
   <v>       0.77686621       0.38845447       0.49995634 </v>
   <v>       0.89398289       0.44701862       0.49934640 </v>
   <v>       0.55296451       0.44695655       0.49935703 </v>
   <v>       0.38844406       0.77688144       0.50003383 </v>
   <v>       0.44309760       0.72156153       0.49987830 </v>
   <v>       0.38847282       0.61158625       0.50002639 </v>
   <v>       0.27848723       0.55692523       0.49990158 </v>
   <v>       0.22313379       0.61154553       0.50004366 </v>
   <v>       0.27845882       0.72152469       0.49991569 </v>
   <v>       0.95190671       0.47599847       0.55911654 </v>
   <v>       0.10601711       0.55298138       0.50065360 </v>
   <v>       0.52396895       0.47589288       0.55912224 </v>
   <v>       0.44703549       0.55304345       0.50064297 </v>
   <v>       0.44700467       0.89398997       0.50064851 </v>
   <v>       0.04809329       0.52400153       0.44088346 </v>
   <v>       0.47603105       0.52410712       0.44087776 </v>
   <v>       0.47599197       0.95191696       0.44088107 </v>
  </varray>
 </structure>
</modeling>
