<?xml version="1.0" encoding="ISO-8859-1"?>
<modeling>
 <generator>
  <i name="program" type="string">vasp </i>
  <i name="version" type="string">5.4.4.18Apr17-6-g9f103f2a35  </i>
  <i name="subversion" type="string">(build Jun 07 2020 16:50:00) complex            parallel </i>
  <i name="platform" type="string">LinuxIFC </i>
  <i name="date" type="string">2023 02 16 </i>
  <i name="time" type="string">13:12:54 </i>
 </generator>
 <incar>
  <i type="string" name="SYSTEM">Simulation for cell shape cell volume r</i>
  <i type="int" name="ISTART">     1</i>
  <i type="string" name="PREC">high</i>
  <i type="string" name="ALGO">48</i>
  <i type="int" name="ICHARG">    11</i>
  <i type="int" name="NELM">   200</i>
  <i type="int" name="IBRION">    -1</i>
  <i name="EDIFF">      0.00001000</i>
  <i name="EDIFFG">     -0.01000000</i>
  <i type="int" name="NSW">     0</i>
  <i type="int" name="ISIF">     2</i>
  <i name="ENCUT">    500.00000000</i>
  <i name="POTIM">      0.30000000</i>
  <i type="string" name="LREAL">A</i>
  <i type="int" name="ISMEAR">     0</i>
  <i name="SIGMA">      0.01000000</i>
  <i type="int" name="NWRITE">     0</i>
  <i type="logical" name="LWAVE"> F  </i>
  <i type="logical" name="LCHARG"> F  </i>
  <v type="int" name="KPOINT_BSE">    -1     0     0     0</v>
  <i type="int" name="NELM">   200</i>
  <i type="string" name="GGA">PE</i>
 </incar>
 <structure name="primitive_cell" >
  <crystal>
   <varray name="basis" >
    <v>      34.52197787      -0.02277254       0.00000000 </v>
    <v>     -17.27002673      29.92250008       0.00000000 </v>
    <v>       0.00000000       0.00000000      20.00000000 </v>
   </varray>
   <i name="volume">  20651.81206736 </i>
   <varray name="rec_basis" >
    <v>       0.02897809       0.01672495       0.00000000 </v>
    <v>       0.00002205       0.03343240       0.00000000 </v>
    <v>       0.00000000       0.00000000       0.05000000 </v>
   </varray>
  </crystal>
  <varray name="positions" >
   <v>      -0.19406893       0.38581850       0.31070007 </v>
   <v>      -0.20200823       0.39108420       0.36931625 </v>
   <v>      -0.22608138       0.40630677       0.38740768 </v>
   <v>      -0.18177149       0.37675493       0.42209297 </v>
   <v>      -0.21297720       0.31123827       0.37846814 </v>
   <v>      -0.19226004       0.33235354       0.41930077 </v>
   <v>      -0.11897870       0.48160519       0.39219193 </v>
   <v>      -0.15692924       0.40562975       0.47460550 </v>
   <v>      -0.13794416       0.48285505       0.43489774 </v>
   <v>      -0.15484585       0.44927736       0.48348359 </v>
   <v>      -0.17837869       0.31455979       0.47078448 </v>
   <v>      -0.13963731       0.38832868      -0.47791274 </v>
   <v>      -0.14835280      -0.48302268       0.43791656 </v>
   <v>      -0.14999408       0.34375970      -0.47961723 </v>
   <v>      -0.26486531       0.25772414       0.47246751 </v>
   <v>      -0.17683689       0.45426389      -0.46095243 </v>
   <v>      -0.13244610      -0.45100331       0.38153767 </v>
   <v>      -0.19894145       0.26531877       0.47622128 </v>
   <v>      -0.09440244      -0.43902231       0.35994500 </v>
   <v>      -0.24581315       0.24047625       0.47755844 </v>
   <v>      -0.11900546       0.41007514      -0.43746855 </v>
   <v>      -0.18916097       0.42900150      -0.42161788 </v>
   <v>      -0.17532033      -0.48068346       0.48853288 </v>
   <v>      -0.15800986      -0.43862933       0.35949237 </v>
   <v>      -0.18673295       0.48861472      -0.45874005 </v>
   <v>      -0.13802717       0.33078725      -0.43980887 </v>
   <v>      -0.26092324       0.48733266       0.47400124 </v>
   <v>      -0.38227491       0.22202465       0.38456497 </v>
   <v>      -0.17487429       0.24280903       0.48239857 </v>
   <v>      -0.13836124       0.26144631       0.48116902 </v>
   <v>      -0.19707814      -0.45285395       0.48660079 </v>
   <v>      -0.20601913       0.49062820      -0.41705896 </v>
   <v>      -0.24361142      -0.47634575       0.47878353 </v>
   <v>      -0.31409975       0.48655921       0.37857370 </v>
   <v>      -0.26884813       0.19401597       0.48579496 </v>
   <v>      -0.29379337       0.15356352       0.36002513 </v>
   <v>      -0.31848412       0.17232764       0.48785302 </v>
   <v>      -0.42173026       0.19707164       0.36783581 </v>
   <v>      -0.19750581       0.19615109       0.49032619 </v>
   <v>      -0.40857907       0.37839062       0.38531609 </v>
   <v>      -0.33536880       0.48574971       0.41948076 </v>
   <v>      -0.39395919       0.41775938       0.36818368 </v>
   <v>      -0.24443990       0.17198845       0.49284632 </v>
   <v>      -0.38918262       0.43151378       0.30992061 </v>
   <v>      -0.43565645       0.18745838       0.30973727 </v>
   <v>      -0.34800542       0.14535491       0.43741914 </v>
   <v>      -0.33758606       0.18392378      -0.45934592 </v>
   <v>      -0.31610624       0.20327766      -0.41785396 </v>
   <v>      -0.17497148      -0.40638134       0.49307099 </v>
   <v>      -0.33231584       0.12906877       0.38095654 </v>
   <v>      -0.13413559       0.20098469       0.40435268 </v>
   <v>      -0.26841765      -0.45432310       0.47718808 </v>
   <v>      -0.13864813      -0.38738117       0.49832952 </v>
   <v>      -0.37980737       0.45176696       0.42173821 </v>
   <v>      -0.31769916      -0.48305605       0.47159588 </v>
   <v>      -0.39253891       0.13509741       0.43474868 </v>
   <v>      -0.38184790       0.17412182      -0.46119765 </v>
   <v>      -0.40906032       0.15206048       0.48345860 </v>
   <v>      -0.45557867       0.17777774       0.42173096 </v>
   <v>      -0.26175048       0.13571529       0.49840696 </v>
   <v>      -0.17230115       0.17193972       0.49446833 </v>
   <v>      -0.14066000       0.17776924       0.44549534 </v>
   <v>      -0.41292915       0.11605796       0.39222395 </v>
   <v>      -0.39461481       0.18653041      -0.42173075 </v>
   <v>      -0.19912514      -0.38364025       0.49043657 </v>
   <v>      -0.35934377       0.09172654       0.35813048 </v>
   <v>      -0.24583986      -0.40771597       0.48283069 </v>
   <v>      -0.49055148       0.20819009       0.37767170 </v>
   <v>      -0.45077699       0.15393162       0.47497329 </v>
   <v>      -0.48958747       0.18815312       0.41906010 </v>
   <v>      -0.40886453       0.44715833       0.47430771 </v>
   <v>      -0.34703539      -0.48444291      -0.47857445 </v>
   <v>      -0.49100939       0.26151139       0.47247175 </v>
   <v>      -0.26446488      -0.38986386       0.48137081 </v>
   <v>      -0.18030352       0.14181820      -0.45346549 </v>
   <v>      -0.39163684       0.48127565      -0.47741948 </v>
   <v>      -0.45262365       0.40555409       0.48236123 </v>
   <v>      -0.43375686       0.39156210      -0.42153056 </v>
   <v>      -0.11847814       0.15343067       0.44797623 </v>
   <v>      -0.17487461      -0.33422042       0.49414633 </v>
   <v>      -0.20388477       0.13684295      -0.41362514 </v>
   <v>      -0.45847417       0.37862358      -0.46165378 </v>
   <v>      -0.33416853      -0.45988345      -0.43824379 </v>
   <v>      -0.09390925       0.15839997       0.40967796 </v>
   <v>      -0.48477647       0.13740738      -0.47654822 </v>
   <v>      -0.20433747      -0.32547775       0.40420928 </v>
   <v>      -0.48552603       0.38877381       0.43269563 </v>
   <v>       0.47938989       0.17510166       0.47137798 </v>
   <v>       0.47264709       0.24245416       0.47736986 </v>
   <v>      -0.48365005       0.40891914       0.38954446 </v>
   <v>      -0.13933587      -0.33035885      -0.41424704 </v>
   <v>      -0.49301122       0.33440917      -0.45980905 </v>
   <v>      -0.18096259      -0.30862099       0.44514125 </v>
   <v>      -0.14450589      -0.31190552      -0.45409374 </v>
   <v>      -0.41349882       0.47974824      -0.43685892 </v>
   <v>      -0.49567837       0.31316697      -0.41768536 </v>
   <v>       0.48023414       0.34424190       0.43524450 </v>
   <v>      -0.48308051       0.11749895      -0.43550533 </v>
   <v>       0.48090081       0.14762905      -0.47814287 </v>
   <v>       0.47698664       0.31503772       0.48662666 </v>
   <v>      -0.15782139       0.11776785      -0.45179128 </v>
   <v>      -0.12663224       0.12245731       0.49914361 </v>
   <v>       0.45065812       0.19562443       0.47644796 </v>
   <v>       0.44909264       0.26541576       0.48487486 </v>
   <v>       0.43622177       0.28972415       0.35696862 </v>
   <v>       0.44917488       0.32808461       0.37759606 </v>
   <v>       0.45642733       0.13628424      -0.43768762 </v>
   <v>      -0.15670477      -0.26209508       0.44736501 </v>
   <v>      -0.12051219      -0.26537290      -0.45270318 </v>
   <v>       0.43853259       0.35455456       0.35358853 </v>
   <v>      -0.16932473       0.08563695      -0.39605167 </v>
   <v>      -0.17729783       0.09675010      -0.34103729 </v>
   <v>      -0.10145124       0.09802588      -0.49978214 </v>
   <v>      -0.16190915      -0.24263336       0.40912977 </v>
   <v>       0.40403972       0.17151561       0.48237595 </v>
   <v>      -0.12555834      -0.23909318       0.49829207 </v>
   <v>      -0.13321382       0.05926745       0.41163090 </v>
   <v>       0.40259502       0.24097911       0.49165052 </v>
   <v>      -0.08803297      -0.24448367      -0.39738353 </v>
   <v>      -0.09897478      -0.26314600      -0.34205212 </v>
   <v>      -0.06236705       0.13190299      -0.41161654 </v>
   <v>      -0.10848943       0.06641759       0.45072515 </v>
   <v>       0.38622391       0.13502694       0.48146418 </v>
   <v>       0.37989467       0.19406332       0.48961583 </v>
   <v>      -0.06939803       0.10708092      -0.45040192 </v>
   <v>      -0.17092092       0.04971935      -0.40819944 </v>
   <v>      -0.06308963      -0.18198235       0.41017276 </v>
   <v>      -0.05200371      -0.21041468      -0.41027301 </v>
   <v>       0.38356500       0.25824866       0.49675134 </v>
   <v>      -0.10142617      -0.18950216       0.49945478 </v>
   <v>      -0.07020482      -0.16464489       0.44964385 </v>
   <v>      -0.08480458       0.04355742       0.45194480 </v>
   <v>      -0.04630143       0.08366215      -0.44986057 </v>
   <v>       0.32170026       0.13049110       0.40366269 </v>
   <v>       0.33044339       0.16862808       0.49363919 </v>
   <v>      -0.09033266       0.01926828       0.41289857 </v>
   <v>      -0.13505434      -0.18485244      -0.41166018 </v>
   <v>      -0.11044551      -0.16682748      -0.45063729 </v>
   <v>       0.01024860       0.13365077      -0.37984503 </v>
   <v>      -0.05328626       0.05114043      -0.49791937 </v>
   <v>       0.30481897       0.13681917       0.44474970 </v>
   <v>      -0.01476128       0.09356340      -0.39371515 </v>
   <v>       0.32657788       0.20001337      -0.41447344 </v>
   <v>      -0.04762502      -0.11811178       0.45109971 </v>
   <v>       0.30811699       0.17637158      -0.45431430 </v>
   <v>      -0.02358804      -0.09909437       0.41187287 </v>
   <v>      -0.08732860      -0.12031681      -0.44987316 </v>
   <v>       0.03712437       0.08505039      -0.49763557 </v>
   <v>      -0.02875882       0.02613507      -0.49856026 </v>
   <v>      -0.05515048      -0.09450213      -0.49821911 </v>
   <v>      -0.01605746       0.06154653      -0.36416484 </v>
   <v>       0.25824959       0.11422530       0.44722942 </v>
   <v>       0.26154805       0.15348118      -0.45266865 </v>
   <v>       0.01810716       0.04857940      -0.49874559 </v>
   <v>       0.23879497       0.08953351       0.40900088 </v>
   <v>      -0.08922916      -0.03812044      -0.49803461 </v>
   <v>      -0.09713819      -0.09899735      -0.39320287 </v>
   <v>      -0.05272480      -0.02062168      -0.49901623 </v>
   <v>       0.23522200       0.12215147       0.49833914 </v>
   <v>      -0.13719317      -0.11477295      -0.37824918 </v>
   <v>       0.03399649      -0.04113897      -0.49758014 </v>
   <v>       0.09545113       0.08542082       0.41243581 </v>
   <v>       0.25919755       0.17212152      -0.34175140 </v>
   <v>      -0.03026339      -0.04497604      -0.49861478 </v>
   <v>       0.24061387       0.16474313      -0.39712331 </v>
   <v>      -0.06505552      -0.06779901      -0.36440898 </v>
   <v>       0.01651318      -0.02215206      -0.49874755 </v>
   <v>       0.04092538       0.02465600      -0.49828844 </v>
   <v>       0.11432156       0.08011344       0.45156545 </v>
   <v>       0.18558050       0.09683722       0.49956681 </v>
   <v>       0.17841708       0.12801739       0.41048843 </v>
   <v>       0.20659951       0.16682272      -0.40984742 </v>
   <v>       0.09048635       0.04907050      -0.49774128 </v>
   <v>       0.11001650      -0.01327565      -0.37785643 </v>
   <v>       0.16089241       0.10359776       0.44993795 </v>
   <v>       0.18053388       0.05840058      -0.41158085 </v>
   <v>       0.09457022       0.01124467      -0.39281061 </v>
   <v>       0.16266121       0.06522293      -0.45050000 </v>
   <v>       0.06360073       0.01246257      -0.36384396 </v>
   <v>       0.11610779       0.04230328      -0.44953709 </v>
  </varray>
 </structure>
 <varray name="primitive_index" >
  <v type="int" >        1 </v>
  <v type="int" >       25 </v>
  <v type="int" >        4 </v>
  <v type="int" >       52 </v>
  <v type="int" >      142 </v>
  <v type="int" >       53 </v>
  <v type="int" >      143 </v>
  <v type="int" >       51 </v>
  <v type="int" >       50 </v>
  <v type="int" >       85 </v>
  <v type="int" >       54 </v>
  <v type="int" >      105 </v>
  <v type="int" >       49 </v>
  <v type="int" >      104 </v>
  <v type="int" >      144 </v>
  <v type="int" >      102 </v>
  <v type="int" >       26 </v>
  <v type="int" >       37 </v>
  <v type="int" >        3 </v>
  <v type="int" >       55 </v>
  <v type="int" >      166 </v>
  <v type="int" >      163 </v>
  <v type="int" >       84 </v>
  <v type="int" >        2 </v>
  <v type="int" >      103 </v>
  <v type="int" >      165 </v>
  <v type="int" >      146 </v>
  <v type="int" >       11 </v>
  <v type="int" >       39 </v>
  <v type="int" >      133 </v>
  <v type="int" >       82 </v>
  <v type="int" >      164 </v>
  <v type="int" >       57 </v>
  <v type="int" >      153 </v>
  <v type="int" >      109 </v>
  <v type="int" >       10 </v>
  <v type="int" >      115 </v>
  <v type="int" >       29 </v>
  <v type="int" >       38 </v>
  <v type="int" >        7 </v>
  <v type="int" >       71 </v>
  <v type="int" >       27 </v>
  <v type="int" >      110 </v>
  <v type="int" >        5 </v>
  <v type="int" >        9 </v>
  <v type="int" >       73 </v>
  <v type="int" >      130 </v>
  <v type="int" >      178 </v>
  <v type="int" >       83 </v>
  <v type="int" >       30 </v>
  <v type="int" >      136 </v>
  <v type="int" >       56 </v>
  <v type="int" >      158 </v>
  <v type="int" >       70 </v>
  <v type="int" >       72 </v>
  <v type="int" >       74 </v>
  <v type="int" >      129 </v>
  <v type="int" >      116 </v>
  <v type="int" >       76 </v>
  <v type="int" >      169 </v>
  <v type="int" >       93 </v>
  <v type="int" >       43 </v>
  <v type="int" >      156 </v>
  <v type="int" >      177 </v>
  <v type="int" >       40 </v>
  <v type="int" >       12 </v>
  <v type="int" >       58 </v>
  <v type="int" >      155 </v>
  <v type="int" >       75 </v>
  <v type="int" >       77 </v>
  <v type="int" >       69 </v>
  <v type="int" >      127 </v>
  <v type="int" >      148 </v>
  <v type="int" >      145 </v>
  <v type="int" >       92 </v>
  <v type="int" >      128 </v>
  <v type="int" >      114 </v>
  <v type="int" >      173 </v>
  <v type="int" >       44 </v>
  <v type="int" >      101 </v>
  <v type="int" >      159 </v>
  <v type="int" >      125 </v>
  <v type="int" >      175 </v>
  <v type="int" >      137 </v>
  <v type="int" >      132 </v>
  <v type="int" >      140 </v>
  <v type="int" >       68 </v>
  <v type="int" >       78 </v>
  <v type="int" >       60 </v>
  <v type="int" >      154 </v>
  <v type="int" >      161 </v>
  <v type="int" >      126 </v>
  <v type="int" >       47 </v>
  <v type="int" >      100 </v>
  <v type="int" >      176 </v>
  <v type="int" >      174 </v>
  <v type="int" >       67 </v>
  <v type="int" >      180 </v>
  <v type="int" >      131 </v>
  <v type="int" >      113 </v>
  <v type="int" >       91 </v>
  <v type="int" >       90 </v>
  <v type="int" >       59 </v>
  <v type="int" >      111 </v>
  <v type="int" >        6 </v>
  <v type="int" >       28 </v>
  <v type="int" >      179 </v>
  <v type="int" >       48 </v>
  <v type="int" >       99 </v>
  <v type="int" >        8 </v>
  <v type="int" >       31 </v>
  <v type="int" >       13 </v>
  <v type="int" >       89 </v>
  <v type="int" >      141 </v>
  <v type="int" >       62 </v>
  <v type="int" >       98 </v>
  <v type="int" >      134 </v>
  <v type="int" >      112 </v>
  <v type="int" >       33 </v>
  <v type="int" >       16 </v>
  <v type="int" >      160 </v>
  <v type="int" >       41 </v>
  <v type="int" >      147 </v>
  <v type="int" >       61 </v>
  <v type="int" >       88 </v>
  <v type="int" >       14 </v>
  <v type="int" >      138 </v>
  <v type="int" >       18 </v>
  <v type="int" >      170 </v>
  <v type="int" >       97 </v>
  <v type="int" >       45 </v>
  <v type="int" >       42 </v>
  <v type="int" >       87 </v>
  <v type="int" >      151 </v>
  <v type="int" >      124 </v>
  <v type="int" >      135 </v>
  <v type="int" >      162 </v>
  <v type="int" >       96 </v>
  <v type="int" >       20 </v>
  <v type="int" >       86 </v>
  <v type="int" >       65 </v>
  <v type="int" >       32 </v>
  <v type="int" >      171 </v>
  <v type="int" >       46 </v>
  <v type="int" >      123 </v>
  <v type="int" >      139 </v>
  <v type="int" >       95 </v>
  <v type="int" >      168 </v>
  <v type="int" >       79 </v>
  <v type="int" >       94 </v>
  <v type="int" >       15 </v>
  <v type="int" >       66 </v>
  <v type="int" >      122 </v>
  <v type="int" >      108 </v>
  <v type="int" >      152 </v>
  <v type="int" >      157 </v>
  <v type="int" >       34 </v>
  <v type="int" >       80 </v>
  <v type="int" >      121 </v>
  <v type="int" >       17 </v>
  <v type="int" >      167 </v>
  <v type="int" >      150 </v>
  <v type="int" >       21 </v>
  <v type="int" >       81 </v>
  <v type="int" >       35 </v>
  <v type="int" >       19 </v>
  <v type="int" >      106 </v>
  <v type="int" >      107 </v>
  <v type="int" >       64 </v>
  <v type="int" >      120 </v>
  <v type="int" >      149 </v>
  <v type="int" >       23 </v>
  <v type="int" >      117 </v>
  <v type="int" >       22 </v>
  <v type="int" >       63 </v>
  <v type="int" >      172 </v>
  <v type="int" >       36 </v>
  <v type="int" >      119 </v>
  <v type="int" >       24 </v>
  <v type="int" >      118 </v>
 </varray>
 <kpoints>
  <generation param="listgenerated">
   <i name="divisions" type="int">      20 </i>
   <v>       0.00000000       0.00000000       0.00000000 </v>
   <v>       0.50000000       0.00000000       0.00000000 </v>
   <v>       0.33333333       0.33333333       0.00000000 </v>
   <v>       0.00000000       0.00000000       0.00000000 </v>
  </generation>
  <varray name="kpointlist" >
   <v>       0.00000000       0.00000000       0.00000000 </v>
   <v>       0.02631579       0.00000000       0.00000000 </v>
   <v>       0.05263158       0.00000000       0.00000000 </v>
   <v>       0.07894737       0.00000000       0.00000000 </v>
   <v>       0.10526316       0.00000000       0.00000000 </v>
   <v>       0.13157895       0.00000000       0.00000000 </v>
   <v>       0.15789474       0.00000000       0.00000000 </v>
   <v>       0.18421053       0.00000000       0.00000000 </v>
   <v>       0.21052632       0.00000000       0.00000000 </v>
   <v>       0.23684211       0.00000000       0.00000000 </v>
   <v>       0.26315789       0.00000000       0.00000000 </v>
   <v>       0.28947368       0.00000000       0.00000000 </v>
   <v>       0.31578947       0.00000000       0.00000000 </v>
   <v>       0.34210526       0.00000000       0.00000000 </v>
   <v>       0.36842105       0.00000000       0.00000000 </v>
   <v>       0.39473684       0.00000000       0.00000000 </v>
   <v>       0.42105263       0.00000000       0.00000000 </v>
   <v>       0.44736842       0.00000000       0.00000000 </v>
   <v>       0.47368421       0.00000000       0.00000000 </v>
   <v>       0.50000000       0.00000000       0.00000000 </v>
   <v>       0.50000000       0.00000000       0.00000000 </v>
   <v>       0.49122807       0.01754386       0.00000000 </v>
   <v>       0.48245614       0.03508772       0.00000000 </v>
   <v>       0.47368421       0.05263158       0.00000000 </v>
   <v>       0.46491228       0.07017544       0.00000000 </v>
   <v>       0.45614035       0.08771930       0.00000000 </v>
   <v>       0.44736842       0.10526316       0.00000000 </v>
   <v>       0.43859649       0.12280702       0.00000000 </v>
   <v>       0.42982456       0.14035088       0.00000000 </v>
   <v>       0.42105263       0.15789474       0.00000000 </v>
   <v>       0.41228070       0.17543860       0.00000000 </v>
   <v>       0.40350877       0.19298246       0.00000000 </v>
   <v>       0.39473684       0.21052632       0.00000000 </v>
   <v>       0.38596491       0.22807018       0.00000000 </v>
   <v>       0.37719298       0.24561404       0.00000000 </v>
   <v>       0.36842105       0.26315789       0.00000000 </v>
   <v>       0.35964912       0.28070175       0.00000000 </v>
   <v>       0.35087719       0.29824561       0.00000000 </v>
   <v>       0.34210526       0.31578947       0.00000000 </v>
   <v>       0.33333333       0.33333333       0.00000000 </v>
   <v>       0.33333333       0.33333333       0.00000000 </v>
   <v>       0.31578947       0.31578947       0.00000000 </v>
   <v>       0.29824561       0.29824561       0.00000000 </v>
   <v>       0.28070175       0.28070175       0.00000000 </v>
   <v>       0.26315789       0.26315789       0.00000000 </v>
   <v>       0.24561404       0.24561404       0.00000000 </v>
   <v>       0.22807018       0.22807018       0.00000000 </v>
   <v>       0.21052632       0.21052632       0.00000000 </v>
   <v>       0.19298246       0.19298246       0.00000000 </v>
   <v>       0.17543860       0.17543860       0.00000000 </v>
   <v>       0.15789474       0.15789474       0.00000000 </v>
   <v>       0.14035088       0.14035088       0.00000000 </v>
   <v>       0.12280702       0.12280702       0.00000000 </v>
   <v>       0.10526316       0.10526316       0.00000000 </v>
   <v>       0.08771930       0.08771930       0.00000000 </v>
   <v>       0.07017544       0.07017544       0.00000000 </v>
   <v>       0.05263158       0.05263158       0.00000000 </v>
   <v>       0.03508772       0.03508772       0.00000000 </v>
   <v>       0.01754386       0.01754386       0.00000000 </v>
   <v>       0.00000000       0.00000000       0.00000000 </v>
  </varray>
  <varray name="weights" >
   <v>       0.01666667 </v>
   <v>       0.01666667 </v>
   <v>       0.01666667 </v>
   <v>       0.01666667 </v>
   <v>       0.01666667 </v>
   <v>       0.01666667 </v>
   <v>       0.01666667 </v>
   <v>       0.01666667 </v>
   <v>       0.01666667 </v>
   <v>       0.01666667 </v>
   <v>       0.01666667 </v>
   <v>       0.01666667 </v>
   <v>       0.01666667 </v>
   <v>       0.01666667 </v>
   <v>       0.01666667 </v>
   <v>       0.01666667 </v>
   <v>       0.01666667 </v>
   <v>       0.01666667 </v>
   <v>       0.01666667 </v>
   <v>       0.01666667 </v>
   <v>       0.01666667 </v>
   <v>       0.01666667 </v>
   <v>       0.01666667 </v>
   <v>       0.01666667 </v>
   <v>       0.01666667 </v>
   <v>       0.01666667 </v>
   <v>       0.01666667 </v>
   <v>       0.01666667 </v>
   <v>       0.01666667 </v>
   <v>       0.01666667 </v>
   <v>       0.01666667 </v>
   <v>       0.01666667 </v>
   <v>       0.01666667 </v>
   <v>       0.01666667 </v>
   <v>       0.01666667 </v>
   <v>       0.01666667 </v>
   <v>       0.01666667 </v>
   <v>       0.01666667 </v>
   <v>       0.01666667 </v>
   <v>       0.01666667 </v>
   <v>       0.01666667 </v>
   <v>       0.01666667 </v>
   <v>       0.01666667 </v>
   <v>       0.01666667 </v>
   <v>       0.01666667 </v>
   <v>       0.01666667 </v>
   <v>       0.01666667 </v>
   <v>       0.01666667 </v>
   <v>       0.01666667 </v>
   <v>       0.01666667 </v>
   <v>       0.01666667 </v>
   <v>       0.01666667 </v>
   <v>       0.01666667 </v>
   <v>       0.01666667 </v>
   <v>       0.01666667 </v>
   <v>       0.01666667 </v>
   <v>       0.01666667 </v>
   <v>       0.01666667 </v>
   <v>       0.01666667 </v>
   <v>       0.01666667 </v>
  </varray>
 </kpoints>
 <parameters>
  <separator name="general" >
   <i type="string" name="SYSTEM">Simulation for cell shape cell volume r</i>
   <i type="logical" name="LCOMPAT"> F  </i>
  </separator>
  <separator name="electronic" >
   <i type="string" name="PREC">high</i>
   <i name="ENMAX">    500.00000000</i>
   <i name="ENAUG">    644.87300000</i>
   <i name="EDIFF">      0.00001000</i>
   <i type="int" name="IALGO">    38</i>
   <i type="int" name="IWAVPR">    10</i>
   <i type="int" name="NBANDS">   416</i>
   <i name="NELECT">    636.00000000</i>
   <i type="int" name="TURBO">     0</i>
   <i type="int" name="IRESTART">     0</i>
   <i type="int" name="NREBOOT">     0</i>
   <i type="int" name="NMIN">     0</i>
   <i name="EREF">      0.00000000</i>
   <separator name="electronic smearing" >
    <i type="int" name="ISMEAR">     0</i>
    <i name="SIGMA">      0.01000000</i>
    <i name="KSPACING">      0.50000000</i>
    <i type="logical" name="KGAMMA"> T  </i>
   </separator>
   <separator name="electronic projectors" >
    <i type="logical" name="LREAL"> T  </i>
    <v name="ROPT">     -0.00040000     -0.00040000     -0.00040000     -0.00040000</v>
    <i type="int" name="LMAXPAW">  -100</i>
    <i type="int" name="LMAXMIX">     2</i>
    <i type="logical" name="NLSPLINE"> F  </i>
   </separator>
   <separator name="electronic startup" >
    <i type="int" name="ISTART">     1</i>
    <i type="int" name="ICHARG">    11</i>
    <i type="int" name="INIWAV">     1</i>
   </separator>
   <separator name="electronic spin" >
    <i type="int" name="ISPIN">     1</i>
    <i type="logical" name="LNONCOLLINEAR"> F  </i>
    <v name="MAGMOM">      1.00000000      1.00000000      1.00000000      1.00000000      1.00000000      1.00000000      1.00000000      1.00000000      1.00000000      1.00000000      1.00000000      1.00000000      1.00000000      1.00000000      1.00000000      1.00000000      1.00000000      1.00000000      1.00000000      1.00000000
      1.00000000      1.00000000      1.00000000      1.00000000      1.00000000      1.00000000      1.00000000      1.00000000      1.00000000      1.00000000      1.00000000      1.00000000      1.00000000      1.00000000      1.00000000      1.00000000      1.00000000      1.00000000      1.00000000      1.00000000
      1.00000000      1.00000000      1.00000000      1.00000000      1.00000000      1.00000000      1.00000000      1.00000000      1.00000000      1.00000000      1.00000000      1.00000000      1.00000000      1.00000000      1.00000000      1.00000000      1.00000000      1.00000000      1.00000000      1.00000000
      1.00000000      1.00000000      1.00000000      1.00000000      1.00000000      1.00000000      1.00000000      1.00000000      1.00000000      1.00000000      1.00000000      1.00000000      1.00000000      1.00000000      1.00000000      1.00000000      1.00000000      1.00000000      1.00000000      1.00000000
      1.00000000      1.00000000      1.00000000      1.00000000      1.00000000      1.00000000      1.00000000      1.00000000      1.00000000      1.00000000      1.00000000      1.00000000      1.00000000      1.00000000      1.00000000      1.00000000      1.00000000      1.00000000      1.00000000      1.00000000
      1.00000000      1.00000000      1.00000000      1.00000000      1.00000000      1.00000000      1.00000000      1.00000000      1.00000000      1.00000000      1.00000000      1.00000000      1.00000000      1.00000000      1.00000000      1.00000000      1.00000000      1.00000000      1.00000000      1.00000000
      1.00000000      1.00000000      1.00000000      1.00000000      1.00000000      1.00000000      1.00000000      1.00000000      1.00000000      1.00000000      1.00000000      1.00000000      1.00000000      1.00000000      1.00000000      1.00000000      1.00000000      1.00000000      1.00000000      1.00000000
      1.00000000      1.00000000      1.00000000      1.00000000      1.00000000      1.00000000      1.00000000      1.00000000      1.00000000      1.00000000      1.00000000      1.00000000      1.00000000      1.00000000      1.00000000      1.00000000      1.00000000      1.00000000      1.00000000      1.00000000
      1.00000000      1.00000000      1.00000000      1.00000000      1.00000000      1.00000000      1.00000000      1.00000000      1.00000000      1.00000000      1.00000000      1.00000000      1.00000000      1.00000000      1.00000000      1.00000000      1.00000000      1.00000000      1.00000000      1.00000000
</v>
    <i name="NUPDOWN">     -1.00000000</i>
    <i type="logical" name="LSORBIT"> F  </i>
    <v name="SAXIS">      0.00000000      0.00000000      1.00000000</v>
    <i type="logical" name="LSPIRAL"> F  </i>
    <v name="QSPIRAL">      0.00000000      0.00000000      0.00000000</v>
    <i type="logical" name="LZEROZ"> F  </i>
   </separator>
   <separator name="electronic exchange-correlation" >
    <i type="logical" name="LASPH"> F  </i>
    <i type="logical" name="LMETAGGA"> F  </i>
   </separator>
   <separator name="electronic convergence" >
    <i type="int" name="NELM">   200</i>
    <i type="int" name="NELMDL">     0</i>
    <i type="int" name="NELMIN">     2</i>
    <i name="ENINI">    500.00000000</i>
    <separator name="electronic convergence detail" >
     <i type="logical" name="LDIAG"> T  </i>
     <i type="logical" name="LSUBROT"> F  </i>
     <i name="WEIMIN">      0.00000000</i>
     <i name="EBREAK">      0.00000001</i>
     <i name="DEPER">      0.30000000</i>
     <i type="int" name="NRMM">     4</i>
     <i name="TIME">      0.40000000</i>
    </separator>
   </separator>
   <separator name="electronic mixer" >
    <i name="AMIX">      0.40000000</i>
    <i name="BMIX">      1.00000000</i>
    <i name="AMIN">      0.10000000</i>
    <i name="AMIX_MAG">      1.60000000</i>
    <i name="BMIX_MAG">      1.00000000</i>
    <separator name="electronic mixer details" >
     <i type="int" name="IMIX">     4</i>
     <i type="logical" name="MIXFIRST"> F  </i>
     <i type="int" name="MAXMIX">   -45</i>
     <i name="WC">    100.00000000</i>
     <i type="int" name="INIMIX">     1</i>
     <i type="int" name="MIXPRE">     1</i>
     <i type="int" name="MREMOVE">     5</i>
    </separator>
   </separator>
   <separator name="electronic dipolcorrection" >
    <i type="logical" name="LDIPOL"> F  </i>
    <i type="logical" name="LMONO"> F  </i>
    <i type="int" name="IDIPOL">     0</i>
    <i name="EPSILON">      1.00000000</i>
    <v name="DIPOL">   -100.00000000   -100.00000000   -100.00000000</v>
    <i name="EFIELD">      0.00000000</i>
   </separator>
  </separator>
  <separator name="grids" >
   <i type="int" name="NGX">   252</i>
   <i type="int" name="NGY">   252</i>
   <i type="int" name="NGZ">   150</i>
   <i type="int" name="NGXF">   384</i>
   <i type="int" name="NGYF">   384</i>
   <i type="int" name="NGZF">   224</i>
   <i type="logical" name="ADDGRID"> F  </i>
  </separator>
  <separator name="ionic" >
   <i type="int" name="NSW">     0</i>
   <i type="int" name="IBRION">    -1</i>
   <i type="int" name="MDALGO">     0</i>
   <i type="int" name="ISIF">     2</i>
   <i name="PSTRESS">      0.00000000</i>
   <i name="EDIFFG">     -0.01000000</i>
   <i type="int" name="NFREE">     0</i>
   <i name="POTIM">      0.30000000</i>
   <i name="SMASS">     -3.00000000</i>
   <i name="SCALEE">      1.00000000</i>
  </separator>
  <separator name="ionic md" >
   <i name="TEBEG">      0.00010000</i>
   <i name="TEEND">      0.00010000</i>
   <i type="int" name="NBLOCK">     1</i>
   <i type="int" name="KBLOCK">     1</i>
   <i type="int" name="NPACO">   256</i>
   <i name="APACO">     16.00000000</i>
  </separator>
  <separator name="symmetry" >
   <i type="int" name="ISYM">     2</i>
   <i name="SYMPREC">      0.00001000</i>
  </separator>
  <separator name="dos" >
   <i type="int" name="LORBIT">     0</i>
   <v name="RWIGS">     -1.00000000     -1.00000000     -1.00000000     -1.00000000</v>
   <i type="int" name="NEDOS">   301</i>
   <i name="EMIN">     10.00000000</i>
   <i name="EMAX">    -10.00000000</i>
   <i name="EFERMI">      0.00000000</i>
  </separator>
  <separator name="writing" >
   <i type="int" name="NWRITE">     0</i>
   <i type="logical" name="LWAVE"> F  </i>
   <i type="logical" name="LDOWNSAMPLE"> F  </i>
   <i type="logical" name="LCHARG"> F  </i>
   <i type="logical" name="LPARD"> F  </i>
   <i type="logical" name="LVTOT"> F  </i>
   <i type="logical" name="LVHAR"> F  </i>
   <i type="logical" name="LELF"> F  </i>
   <i type="logical" name="LOPTICS"> F  </i>
   <v name="STM">      0.00000000      0.00000000      0.00000000      0.00000000      0.00000000      0.00000000      0.00000000</v>
  </separator>
  <separator name="performance" >
   <i type="int" name="NPAR">    16</i>
   <i type="int" name="NSIM">     4</i>
   <i type="int" name="NBLK">    -1</i>
   <i type="logical" name="LPLANE"> T  </i>
   <i type="logical" name="LSCALAPACK"> T  </i>
   <i type="logical" name="LSCAAWARE"> F  </i>
   <i type="logical" name="LSCALU"> F  </i>
   <i type="logical" name="LASYNC"> F  </i>
   <i type="logical" name="LORBITALREAL"> F  </i>
  </separator>
  <separator name="miscellaneous" >
   <i type="int" name="IDIOT">     3</i>
   <i type="int" name="ISPECIAL">     0</i>
   <i type="logical" name="LMUSIC"> F  </i>
   <v name="POMASS">     16.00000000     14.00100000     12.01100000      1.00000000</v>
   <v name="DARWINR">      0.00000000      0.00000000      0.00000000      0.00000000</v>
   <v name="DARWINV">      1.00000000      1.00000000      1.00000000      1.00000000</v>
   <i type="logical" name="LCORR"> T  </i>
  </separator>
  <i type="logical" name="GGA_COMPAT"> T  </i>
  <i type="logical" name="LBERRY"> F  </i>
  <i type="int" name="ICORELEVEL">     0</i>
  <i type="logical" name="LDAU"> F  </i>
  <i type="int" name="I_CONSTRAINED_M">     0</i>
  <separator name="electronic exchange-correlation" >
   <i type="string" name="GGA">PE</i>
   <i type="int" name="VOSKOWN">     0</i>
   <i type="logical" name="LHFCALC"> F  </i>
   <i type="string" name="PRECFOCK"></i>
   <i type="logical" name="LSYMGRAD"> F  </i>
   <i type="logical" name="LHFONE"> F  </i>
   <i type="logical" name="LRHFCALC"> F  </i>
   <i type="logical" name="LTHOMAS"> F  </i>
   <i type="logical" name="LMODELHF"> F  </i>
   <i name="ENCUT4O">     -1.00000000</i>
   <i type="int" name="EXXOEP">     0</i>
   <i type="int" name="FOURORBIT">     0</i>
   <i name="AEXX">      0.00000000</i>
   <i name="HFALPHA">      0.00000000</i>
   <i name="MCALPHA">      0.00000000</i>
   <i name="ALDAX">      1.00000000</i>
   <i name="AGGAX">      1.00000000</i>
   <i name="ALDAC">      1.00000000</i>
   <i name="AGGAC">      1.00000000</i>
   <i type="int" name="NKREDX">     1</i>
   <i type="int" name="NKREDY">     1</i>
   <i type="int" name="NKREDZ">     1</i>
   <i type="logical" name="SHIFTRED"> F  </i>
   <i type="logical" name="ODDONLY"> F  </i>
   <i type="logical" name="EVENONLY"> F  </i>
   <i type="int" name="LMAXFOCK">     0</i>
   <i type="int" name="NMAXFOCKAE">     0</i>
   <i type="logical" name="LFOCKAEDFT"> F  </i>
   <i name="HFSCREEN">      0.00000000</i>
   <i name="HFSCREENC">      0.00000000</i>
   <i type="int" name="NBANDSGWLOW">     0</i>
  </separator>
  <separator name="vdW DFT" >
   <i type="logical" name="LUSE_VDW"> F  </i>
   <i name="Zab_VDW">     -0.84910000</i>
   <i name="PARAM1">      0.12340000</i>
   <i name="PARAM2">      1.00000000</i>
   <i name="PARAM3">      0.00000000</i>
  </separator>
  <separator name="model GW" >
   <i type="int" name="MODEL_GW">     0</i>
   <i name="MODEL_EPS0">     68.83937356</i>
   <i name="MODEL_ALPHA">      1.00000000</i>
  </separator>
  <separator name="linear response parameters" >
   <i type="logical" name="LEPSILON"> F  </i>
   <i type="logical" name="LRPA"> F  </i>
   <i type="logical" name="LNABLA"> F  </i>
   <i type="logical" name="LVEL"> F  </i>
   <i type="int" name="KINTER">     0</i>
   <i name="CSHIFT">      0.10000000</i>
   <i name="OMEGAMAX">     -1.00000000</i>
   <i name="DEG_THRESHOLD">      0.00200000</i>
   <i name="RTIME">     -0.10000000</i>
   <i name="WPLASMAI">      0.00000000</i>
   <v name="DFIELD">      0.00000000      0.00000000      0.00000000</v>
   <v name="WPLASMA">      0.00000000      0.00000000      0.00000000      0.00000000      0.00000000      0.00000000      0.00000000      0.00000000      0.00000000</v>
  </separator>
  <separator name="orbital magnetization" >
   <i type="logical" name="NUCIND"> F  </i>
   <v name="MAGPOS">      0.00000000      0.00000000      0.00000000</v>
   <i type="logical" name="LNICSALL"> T  </i>
   <i type="logical" name="ORBITALMAG"> F  </i>
   <i type="logical" name="LMAGBLOCH"> F  </i>
   <i type="logical" name="LCHIMAG"> F  </i>
   <i type="logical" name="LGAUGE"> T  </i>
   <i type="int" name="MAGATOM">     0</i>
   <v name="MAGDIPOL">      0.00000000      0.00000000      0.00000000</v>
   <v name="AVECCONST">      0.00000000      0.00000000      0.00000000</v>
  </separator>
  <separator name="response functions" >
   <i type="logical" name="LADDER"> F  </i>
   <i type="logical" name="LRPAFORCE"> F  </i>
   <i type="logical" name="LFXC"> F  </i>
   <i type="logical" name="LHARTREE"> T  </i>
   <i type="int" name="IBSE">     0</i>
   <v type="int" name="KPOINT">    -1     0     0     0</v>
   <i type="logical" name="LTCTE"> F  </i>
   <i type="logical" name="LTETE"> F  </i>
   <i type="logical" name="LTRIPLET"> F  </i>
   <i type="logical" name="LFXCEPS"> F  </i>
   <i type="logical" name="LFXHEG"> F  </i>
   <i type="int" name="NATURALO">     2</i>
   <i type="logical" name="L2ORDER"> F  </i>
   <i type="logical" name="LMP2LT"> F  </i>
   <i type="logical" name="LUSEW"> F  </i>
   <i name="ENCUTGW">     -2.00000000</i>
   <i name="ENCUTGWSOFT">     -2.00000000</i>
   <i name="ENCUTLF">     -1.00000000</i>
   <i type="int" name="LMAXMP2">    -1</i>
   <i name="SCISSOR">      0.00000000</i>
   <i type="int" name="NOMEGA">     0</i>
   <i type="int" name="NOMEGAR">     0</i>
   <i type="int" name="NBANDSGW">    -1</i>
   <i type="int" name="NBANDSO">    -1</i>
   <i type="int" name="NBANDSV">    -1</i>
   <i type="int" name="NELM">   200</i>
   <i type="int" name="NELMHF">     1</i>
   <i type="int" name="DIM">     3</i>
   <i type="int" name="ANTIRES">     0</i>
   <i name="OMEGAMAX">    -30.00000000</i>
   <i name="OMEGAMIN">    -30.00000000</i>
   <i name="OMEGATL">   -200.00000000</i>
   <i type="int" name="OMEGAGRID">   140</i>
   <i name="CSHIFT">     -0.10000000</i>
   <i type="logical" name="SELFENERGY"> F  </i>
   <i type="logical" name="LSPECTRAL"> F  </i>
   <i type="logical" name="LSPECTRALGW"> F  </i>
   <i type="logical" name="LSINGLES"> F  </i>
   <i type="logical" name="LFERMIGW"> F  </i>
   <i type="logical" name="ODDONLYGW"> F  </i>
   <i type="logical" name="EVENONLYGW"> F  </i>
   <i type="int" name="NKREDLFX">     1</i>
   <i type="int" name="NKREDLFY">     1</i>
   <i type="int" name="NKREDLFZ">     1</i>
   <i type="int" name="MAXMEM">  2800</i>
   <i type="int" name="TELESCOPE">     0</i>
   <i type="int" name="TAUPAR">     1</i>
   <i type="int" name="OMEGAPAR">    -1</i>
   <i name="LAMBDA">      1.00000000</i>
  </separator>
  <separator name="External order field" >
   <i name="OFIELD_KAPPA">      0.00000000</i>
   <v name="OFIELD_K">      0.00000000      0.00000000      0.00000000</v>
   <i name="OFIELD_Q6_NEAR">      0.00000000</i>
   <i name="OFIELD_Q6_FAR">      0.00000000</i>
   <i name="OFIELD_A">      0.00000000</i>
  </separator>
  <separator name="solvation model" >
   <i type="logical" name="LSOL"> F  </i>
  </separator>
 </parameters>
 <atominfo>
  <atoms>     180 </atoms>
  <types>       4 </types>
  <array name="atoms" >
   <dimension dim="1">ion</dimension>
   <field type="string">element</field>
   <field type="int">atomtype</field>
   <set>
    <rc><c>O </c><c>   1</c></rc>
    <rc><c>O </c><c>   1</c></rc>
    <rc><c>O </c><c>   1</c></rc>
    <rc><c>O </c><c>   1</c></rc>
    <rc><c>O </c><c>   1</c></rc>
    <rc><c>O </c><c>   1</c></rc>
    <rc><c>O </c><c>   1</c></rc>
    <rc><c>O </c><c>   1</c></rc>
    <rc><c>O </c><c>   1</c></rc>
    <rc><c>O </c><c>   1</c></rc>
    <rc><c>O </c><c>   1</c></rc>
    <rc><c>O </c><c>   1</c></rc>
    <rc><c>O </c><c>   1</c></rc>
    <rc><c>O </c><c>   1</c></rc>
    <rc><c>O </c><c>   1</c></rc>
    <rc><c>O </c><c>   1</c></rc>
    <rc><c>O </c><c>   1</c></rc>
    <rc><c>O </c><c>   1</c></rc>
    <rc><c>O </c><c>   1</c></rc>
    <rc><c>O </c><c>   1</c></rc>
    <rc><c>O </c><c>   1</c></rc>
    <rc><c>O </c><c>   1</c></rc>
    <rc><c>O </c><c>   1</c></rc>
    <rc><c>O </c><c>   1</c></rc>
    <rc><c>N </c><c>   2</c></rc>
    <rc><c>N </c><c>   2</c></rc>
    <rc><c>N </c><c>   2</c></rc>
    <rc><c>N </c><c>   2</c></rc>
    <rc><c>N </c><c>   2</c></rc>
    <rc><c>N </c><c>   2</c></rc>
    <rc><c>N </c><c>   2</c></rc>
    <rc><c>N </c><c>   2</c></rc>
    <rc><c>N </c><c>   2</c></rc>
    <rc><c>N </c><c>   2</c></rc>
    <rc><c>N </c><c>   2</c></rc>
    <rc><c>N </c><c>   2</c></rc>
    <rc><c>C </c><c>   3</c></rc>
    <rc><c>C </c><c>   3</c></rc>
    <rc><c>C </c><c>   3</c></rc>
    <rc><c>C </c><c>   3</c></rc>
    <rc><c>C </c><c>   3</c></rc>
    <rc><c>C </c><c>   3</c></rc>
    <rc><c>C </c><c>   3</c></rc>
    <rc><c>C </c><c>   3</c></rc>
    <rc><c>C </c><c>   3</c></rc>
    <rc><c>C </c><c>   3</c></rc>
    <rc><c>C </c><c>   3</c></rc>
    <rc><c>C </c><c>   3</c></rc>
    <rc><c>C </c><c>   3</c></rc>
    <rc><c>C </c><c>   3</c></rc>
    <rc><c>C </c><c>   3</c></rc>
    <rc><c>C </c><c>   3</c></rc>
    <rc><c>C </c><c>   3</c></rc>
    <rc><c>C </c><c>   3</c></rc>
    <rc><c>C </c><c>   3</c></rc>
    <rc><c>C </c><c>   3</c></rc>
    <rc><c>C </c><c>   3</c></rc>
    <rc><c>C </c><c>   3</c></rc>
    <rc><c>C </c><c>   3</c></rc>
    <rc><c>C </c><c>   3</c></rc>
    <rc><c>C </c><c>   3</c></rc>
    <rc><c>C </c><c>   3</c></rc>
    <rc><c>C </c><c>   3</c></rc>
    <rc><c>C </c><c>   3</c></rc>
    <rc><c>C </c><c>   3</c></rc>
    <rc><c>C </c><c>   3</c></rc>
    <rc><c>C </c><c>   3</c></rc>
    <rc><c>C </c><c>   3</c></rc>
    <rc><c>C </c><c>   3</c></rc>
    <rc><c>C </c><c>   3</c></rc>
    <rc><c>C </c><c>   3</c></rc>
    <rc><c>C </c><c>   3</c></rc>
    <rc><c>C </c><c>   3</c></rc>
    <rc><c>C </c><c>   3</c></rc>
    <rc><c>C </c><c>   3</c></rc>
    <rc><c>C </c><c>   3</c></rc>
    <rc><c>C </c><c>   3</c></rc>
    <rc><c>C </c><c>   3</c></rc>
    <rc><c>C </c><c>   3</c></rc>
    <rc><c>C </c><c>   3</c></rc>
    <rc><c>C </c><c>   3</c></rc>
    <rc><c>C </c><c>   3</c></rc>
    <rc><c>C </c><c>   3</c></rc>
    <rc><c>C </c><c>   3</c></rc>
    <rc><c>C </c><c>   3</c></rc>
    <rc><c>C </c><c>   3</c></rc>
    <rc><c>C </c><c>   3</c></rc>
    <rc><c>C </c><c>   3</c></rc>
    <rc><c>C </c><c>   3</c></rc>
    <rc><c>C </c><c>   3</c></rc>
    <rc><c>C </c><c>   3</c></rc>
    <rc><c>C </c><c>   3</c></rc>
    <rc><c>C </c><c>   3</c></rc>
    <rc><c>C </c><c>   3</c></rc>
    <rc><c>C </c><c>   3</c></rc>
    <rc><c>C </c><c>   3</c></rc>
    <rc><c>C </c><c>   3</c></rc>
    <rc><c>C </c><c>   3</c></rc>
    <rc><c>C </c><c>   3</c></rc>
    <rc><c>C </c><c>   3</c></rc>
    <rc><c>C </c><c>   3</c></rc>
    <rc><c>C </c><c>   3</c></rc>
    <rc><c>C </c><c>   3</c></rc>
    <rc><c>C </c><c>   3</c></rc>
    <rc><c>C </c><c>   3</c></rc>
    <rc><c>C </c><c>   3</c></rc>
    <rc><c>C </c><c>   3</c></rc>
    <rc><c>C </c><c>   3</c></rc>
    <rc><c>C </c><c>   3</c></rc>
    <rc><c>C </c><c>   3</c></rc>
    <rc><c>C </c><c>   3</c></rc>
    <rc><c>C </c><c>   3</c></rc>
    <rc><c>C </c><c>   3</c></rc>
    <rc><c>C </c><c>   3</c></rc>
    <rc><c>C </c><c>   3</c></rc>
    <rc><c>C </c><c>   3</c></rc>
    <rc><c>C </c><c>   3</c></rc>
    <rc><c>C </c><c>   3</c></rc>
    <rc><c>C </c><c>   3</c></rc>
    <rc><c>C </c><c>   3</c></rc>
    <rc><c>C </c><c>   3</c></rc>
    <rc><c>C </c><c>   3</c></rc>
    <rc><c>C </c><c>   3</c></rc>
    <rc><c>C </c><c>   3</c></rc>
    <rc><c>C </c><c>   3</c></rc>
    <rc><c>C </c><c>   3</c></rc>
    <rc><c>C </c><c>   3</c></rc>
    <rc><c>C </c><c>   3</c></rc>
    <rc><c>C </c><c>   3</c></rc>
    <rc><c>C </c><c>   3</c></rc>
    <rc><c>C </c><c>   3</c></rc>
    <rc><c>C </c><c>   3</c></rc>
    <rc><c>H </c><c>   4</c></rc>
    <rc><c>H </c><c>   4</c></rc>
    <rc><c>H </c><c>   4</c></rc>
    <rc><c>H </c><c>   4</c></rc>
    <rc><c>H </c><c>   4</c></rc>
    <rc><c>H </c><c>   4</c></rc>
    <rc><c>H </c><c>   4</c></rc>
    <rc><c>H </c><c>   4</c></rc>
    <rc><c>H </c><c>   4</c></rc>
    <rc><c>H </c><c>   4</c></rc>
    <rc><c>H </c><c>   4</c></rc>
    <rc><c>H </c><c>   4</c></rc>
    <rc><c>H </c><c>   4</c></rc>
    <rc><c>H </c><c>   4</c></rc>
    <rc><c>H </c><c>   4</c></rc>
    <rc><c>H </c><c>   4</c></rc>
    <rc><c>H </c><c>   4</c></rc>
    <rc><c>H </c><c>   4</c></rc>
    <rc><c>H </c><c>   4</c></rc>
    <rc><c>H </c><c>   4</c></rc>
    <rc><c>H </c><c>   4</c></rc>
    <rc><c>H </c><c>   4</c></rc>
    <rc><c>H </c><c>   4</c></rc>
    <rc><c>H </c><c>   4</c></rc>
    <rc><c>H </c><c>   4</c></rc>
    <rc><c>H </c><c>   4</c></rc>
    <rc><c>H </c><c>   4</c></rc>
    <rc><c>H </c><c>   4</c></rc>
    <rc><c>H </c><c>   4</c></rc>
    <rc><c>H </c><c>   4</c></rc>
    <rc><c>H </c><c>   4</c></rc>
    <rc><c>H </c><c>   4</c></rc>
    <rc><c>H </c><c>   4</c></rc>
    <rc><c>H </c><c>   4</c></rc>
    <rc><c>H </c><c>   4</c></rc>
    <rc><c>H </c><c>   4</c></rc>
    <rc><c>H </c><c>   4</c></rc>
    <rc><c>H </c><c>   4</c></rc>
    <rc><c>H </c><c>   4</c></rc>
    <rc><c>H </c><c>   4</c></rc>
    <rc><c>H </c><c>   4</c></rc>
    <rc><c>H </c><c>   4</c></rc>
    <rc><c>H </c><c>   4</c></rc>
    <rc><c>H </c><c>   4</c></rc>
    <rc><c>H </c><c>   4</c></rc>
    <rc><c>H </c><c>   4</c></rc>
    <rc><c>H </c><c>   4</c></rc>
    <rc><c>H </c><c>   4</c></rc>
   </set>
  </array>
  <array name="atomtypes" >
   <dimension dim="1">type</dimension>
   <field type="int">atomspertype</field>
   <field type="string">element</field>
   <field>mass</field>
   <field>valence</field>
   <field type="string">pseudopotential</field>
   <set>
    <rc><c>  24</c><c>O </c><c>     16.00000000</c><c>      6.00000000</c><c>  PAW_PBE O 08Apr2002                   </c></rc>
    <rc><c>  12</c><c>N </c><c>     14.00100000</c><c>      5.00000000</c><c>  PAW_PBE N 08Apr2002                   </c></rc>
    <rc><c>  96</c><c>C </c><c>     12.01100000</c><c>      4.00000000</c><c>  PAW_PBE C 08Apr2002                   </c></rc>
    <rc><c>  48</c><c>H </c><c>      1.00000000</c><c>      1.00000000</c><c>  PAW_PBE H 15Jun2001                   </c></rc>
   </set>
  </array>
 </atominfo>
 <structure name="initialpos" >
  <crystal>
   <varray name="basis" >
    <v>      34.52197787      -0.02277254       0.00000000 </v>
    <v>     -17.27002673      29.92250008       0.00000000 </v>
    <v>       0.00000000       0.00000000      20.00000000 </v>
   </varray>
   <i name="volume">  20651.81206736 </i>
   <varray name="rec_basis" >
    <v>       0.02897809       0.01672495       0.00000000 </v>
    <v>       0.00002205       0.03343240       0.00000000 </v>
    <v>       0.00000000       0.00000000       0.05000000 </v>
   </varray>
  </crystal>
  <varray name="positions" >
   <v>       0.80593107       0.38581850       0.31070007 </v>
   <v>       0.84199014       0.56137067       0.35949237 </v>
   <v>       0.90559756       0.56097769       0.35994500 </v>
   <v>       0.77391862       0.40630677       0.38740768 </v>
   <v>       0.61081738       0.43151378       0.30992061 </v>
   <v>       0.43622177       0.28972415       0.35696862 </v>
   <v>       0.59142093       0.37839062       0.38531609 </v>
   <v>       0.43853259       0.35455456       0.35358853 </v>
   <v>       0.56434355       0.18745838       0.30973727 </v>
   <v>       0.70620663       0.15356352       0.36002513 </v>
   <v>       0.61772509       0.22202465       0.38456497 </v>
   <v>       0.64065623       0.09172654       0.35813048 </v>
   <v>       0.82270217       0.09675010       0.65896271 </v>
   <v>       0.82907908       0.04971935       0.59180056 </v>
   <v>       0.98394254       0.06154653       0.63583516 </v>
   <v>       0.90102522       0.73685400       0.65794788 </v>
   <v>       0.86280683       0.88522705       0.62175082 </v>
   <v>       0.94799629       0.78958532       0.58972699 </v>
   <v>       0.93494448       0.93220099       0.63559102 </v>
   <v>       0.01024860       0.13365077       0.62015497 </v>
   <v>       0.25919755       0.17212152       0.65824860 </v>
   <v>       0.11001650       0.98672435       0.62214357 </v>
   <v>       0.20659951       0.16682272       0.59015258 </v>
   <v>       0.06360073       0.01246257       0.63615604 </v>
   <v>       0.79799177       0.39108420       0.36931625 </v>
   <v>       0.86755390       0.54899669       0.38153767 </v>
   <v>       0.60604081       0.41775938       0.36818368 </v>
   <v>       0.44917488       0.32808461       0.37759606 </v>
   <v>       0.57826974       0.19707164       0.36783581 </v>
   <v>       0.66768416       0.12906877       0.38095654 </v>
   <v>       0.83067527       0.08563695       0.60394833 </v>
   <v>       0.98523872       0.09356340       0.60628485 </v>
   <v>       0.91196703       0.75551633       0.60261647 </v>
   <v>       0.90286181       0.90100265       0.60679713 </v>
   <v>       0.24061387       0.16474313       0.60287669 </v>
   <v>       0.09457022       0.01124467       0.60718939 </v>
   <v>       0.80105855       0.26531877       0.47622128 </v>
   <v>       0.80249419       0.19615109       0.49032619 </v>
   <v>       0.82512571       0.24280903       0.48239857 </v>
   <v>       0.80087486       0.61635975       0.49043657 </v>
   <v>       0.89151057       0.06641759       0.45072515 </v>
   <v>       0.91519542       0.04355742       0.45194480 </v>
   <v>       0.85934000       0.17776924       0.44549534 </v>
   <v>       0.88152186       0.15343067       0.44797623 </v>
   <v>       0.92979518       0.83535511       0.44964385 </v>
   <v>       0.95237498       0.88188822       0.45109971 </v>
   <v>       0.81903741       0.69137901       0.44514125 </v>
   <v>       0.84329523       0.73790492       0.44736501 </v>
   <v>       0.85164720       0.51697732       0.43791656 </v>
   <v>       0.86205584       0.48285505       0.43489774 </v>
   <v>       0.84307076       0.40562975       0.47460550 </v>
   <v>       0.81822851       0.37675493       0.42209297 </v>
   <v>       0.80773996       0.33235354       0.41930077 </v>
   <v>       0.82162131       0.31455979       0.47078448 </v>
   <v>       0.75418685       0.24047625       0.47755844 </v>
   <v>       0.73158235       0.54567690       0.47718808 </v>
   <v>       0.75638858       0.52365425       0.47878353 </v>
   <v>       0.75416014       0.59228403       0.48283069 </v>
   <v>       0.45065812       0.19562443       0.47644796 </v>
   <v>       0.47264709       0.24245416       0.47736986 </v>
   <v>       0.37989467       0.19406332       0.48961583 </v>
   <v>       0.40403972       0.17151561       0.48237595 </v>
   <v>       0.16089241       0.10359776       0.44993795 </v>
   <v>       0.11432156       0.08011344       0.45156545 </v>
   <v>       0.30481897       0.13681917       0.44474970 </v>
   <v>       0.25824959       0.11422530       0.44722942 </v>
   <v>       0.48023414       0.34424190       0.43524450 </v>
   <v>       0.51447397       0.38877381       0.43269563 </v>
   <v>       0.59113547       0.44715833       0.47430771 </v>
   <v>       0.62019263       0.45176696       0.42173821 </v>
   <v>       0.66463120       0.48574971       0.41948076 </v>
   <v>       0.68230084       0.51694395       0.47159588 </v>
   <v>       0.65199458       0.14535491       0.43741914 </v>
   <v>       0.60746109       0.13509741       0.43474868 </v>
   <v>       0.54922301       0.15393162       0.47497329 </v>
   <v>       0.54442133       0.17777774       0.42173096 </v>
   <v>       0.51041253       0.18815312       0.41906010 </v>
   <v>       0.47938989       0.17510166       0.47137798 </v>
   <v>       0.97124118       0.02613507       0.50143974 </v>
   <v>       0.94727520       0.97937832       0.50098377 </v>
   <v>       0.96973661       0.95502396       0.50138522 </v>
   <v>       0.80292186       0.54714605       0.48660079 </v>
   <v>       0.82502852       0.59361866       0.49307099 </v>
   <v>       0.82467967       0.51931654       0.48853288 </v>
   <v>       0.84515415       0.44927736       0.48348359 </v>
   <v>       0.94671374       0.05114043       0.50208063 </v>
   <v>       0.95369857       0.08366215       0.55013943 </v>
   <v>       0.93060197       0.10708092       0.54959808 </v>
   <v>       0.89854876       0.09802588       0.50021786 </v>
   <v>       0.87336776       0.12245731       0.49914361 </v>
   <v>       0.84217861       0.11776785       0.54820872 </v>
   <v>       0.81969648       0.14181820       0.54653451 </v>
   <v>       0.82769885       0.17193972       0.49446833 </v>
   <v>       0.94484952       0.90549787       0.50178089 </v>
   <v>       0.91267140       0.87968319       0.55012684 </v>
   <v>       0.88955449       0.83317252       0.54936271 </v>
   <v>       0.89857383       0.81049784       0.49945478 </v>
   <v>       0.87444166       0.76090682       0.49829207 </v>
   <v>       0.87948781       0.73462710       0.54729682 </v>
   <v>       0.85549411       0.68809448       0.54590626 </v>
   <v>       0.82512539       0.66577958       0.49414633 </v>
   <v>       0.82316311       0.45426389       0.53904757 </v>
   <v>       0.81326705       0.48861472       0.54125995 </v>
   <v>       0.85000592       0.34375970       0.52038277 </v>
   <v>       0.86036269       0.38832868       0.52208726 </v>
   <v>       0.01651318       0.97784794       0.50125245 </v>
   <v>       0.04092538       0.02465600       0.50171156 </v>
   <v>       0.01810716       0.04857940       0.50125441 </v>
   <v>       0.73115187       0.19401597       0.48579496 </v>
   <v>       0.75556010       0.17198845       0.49284632 </v>
   <v>       0.44909264       0.26541576       0.48487486 </v>
   <v>       0.40259502       0.24097911       0.49165052 </v>
   <v>       0.47698664       0.31503772       0.48662666 </v>
   <v>       0.54737635       0.40555409       0.48236123 </v>
   <v>       0.68151588       0.17232764       0.48785302 </v>
   <v>       0.59093968       0.15206048       0.48345860 </v>
   <v>       0.09048635       0.04907050       0.50225872 </v>
   <v>       0.11610779       0.04230328       0.55046291 </v>
   <v>       0.16266121       0.06522293       0.54950000 </v>
   <v>       0.18558050       0.09683722       0.49956681 </v>
   <v>       0.23522200       0.12215147       0.49833914 </v>
   <v>       0.26154805       0.15348118       0.54733135 </v>
   <v>       0.30811699       0.17637158       0.54568570 </v>
   <v>       0.33044339       0.16862808       0.49363919 </v>
   <v>       0.54152583       0.37862358       0.53834622 </v>
   <v>       0.50698878       0.33440917       0.54019095 </v>
   <v>       0.65296461       0.51555709       0.52142555 </v>
   <v>       0.60836316       0.48127565       0.52258052 </v>
   <v>       0.61815210       0.17412182       0.53880235 </v>
   <v>       0.66241394       0.18392378       0.54065408 </v>
   <v>       0.48090081       0.14762905       0.52185713 </v>
   <v>       0.51522353       0.13740738       0.52345178 </v>
   <v>       0.86163876       0.26144631       0.48116902 </v>
   <v>       0.86678618       0.05926745       0.41163090 </v>
   <v>       0.90966734       0.01926828       0.41289857 </v>
   <v>       0.86586441       0.20098469       0.40435268 </v>
   <v>       0.90609075       0.15839997       0.40967796 </v>
   <v>       0.93691037       0.81801765       0.41017276 </v>
   <v>       0.97641196       0.90090563       0.41187287 </v>
   <v>       0.79566253       0.67452225       0.40420928 </v>
   <v>       0.83809085       0.75736664       0.40912977 </v>
   <v>       0.78702280       0.31123827       0.37846814 </v>
   <v>       0.88102130       0.48160519       0.39219193 </v>
   <v>       0.73513469       0.25772414       0.47246751 </v>
   <v>       0.73553512       0.61013614       0.48137081 </v>
   <v>       0.73907676       0.48733266       0.47400124 </v>
   <v>       0.38622391       0.13502694       0.48146418 </v>
   <v>       0.50899061       0.26151139       0.47247175 </v>
   <v>       0.17841708       0.12801739       0.41048843 </v>
   <v>       0.09545113       0.08542082       0.41243581 </v>
   <v>       0.32170026       0.13049110       0.40366269 </v>
   <v>       0.23879497       0.08953351       0.40900088 </v>
   <v>       0.68590025       0.48655921       0.37857370 </v>
   <v>       0.51634995       0.40891914       0.38954446 </v>
   <v>       0.50944852       0.20819009       0.37767170 </v>
   <v>       0.58707085       0.11605796       0.39222395 </v>
   <v>       0.91077084       0.96187956       0.50196539 </v>
   <v>       0.86135187       0.61261883       0.49832952 </v>
   <v>       0.79611523       0.13684295       0.58637486 </v>
   <v>       0.93763295       0.13190299       0.58838346 </v>
   <v>       0.86066413       0.66964115       0.58575296 </v>
   <v>       0.86494566       0.81514756       0.58833982 </v>
   <v>       0.81083903       0.42900150       0.57838212 </v>
   <v>       0.79398087       0.49062820       0.58294104 </v>
   <v>       0.86197283       0.33078725       0.56019113 </v>
   <v>       0.88099454       0.41007514       0.56253145 </v>
   <v>       0.03399649       0.95886103       0.50241986 </v>
   <v>       0.03712437       0.08505039       0.50236443 </v>
   <v>       0.73824952       0.13571529       0.49840696 </v>
   <v>       0.38356500       0.25824866       0.49675134 </v>
   <v>       0.32657788       0.20001337       0.58552656 </v>
   <v>       0.18053388       0.05840058       0.58841915 </v>
   <v>       0.56624314       0.39156210       0.57846944 </v>
   <v>       0.50432163       0.31316697       0.58231464 </v>
   <v>       0.66583147       0.54011655       0.56175621 </v>
   <v>       0.58650118       0.47974824       0.56314108 </v>
   <v>       0.60538519       0.18653041       0.57826925 </v>
   <v>       0.68389376       0.20327766       0.58214604 </v>
   <v>       0.45642733       0.13628424       0.56231238 </v>
   <v>       0.51691949       0.11749895       0.56449467 </v>
  </varray>
 </structure>
 <calculation>
  <scstep>
   <time name="dav">  852.07  860.24</time>
   <time name="total">  852.41  860.60</time>
   <energy>
    <i name="alphaZ">     89.39759806 </i>
    <i name="ewald">  95117.22170258 </i>
    <i name="hartreedc">-118376.27848986 </i>
    <i name="XCdc">   2363.78585765 </i>
    <i name="pawpsdc">  58061.33878361 </i>
    <i name="pawaedc"> -58190.04034156 </i>
    <i name="eentropy">     -0.00000000 </i>
    <i name="bandstr">  -8607.86872843 </i>
    <i name="atom">  28276.56973846 </i>
    <i name="e_fr_energy">  -1265.87387950 </i>
    <i name="e_wo_entrp">  -1265.87387950 </i>
    <i name="e_0_energy">  -1265.87387950 </i>
   </energy>
  </scstep>
  <scstep>
   <time name="dav">  926.78  935.54</time>
   <time name="total">  926.79  935.55</time>
   <energy>
    <i name="e_fr_energy">  -1266.48769530 </i>
    <i name="e_wo_entrp">  -1266.48769530 </i>
    <i name="e_0_energy">  -1266.48769530 </i>
   </energy>
  </scstep>
  <scstep>
   <time name="dav"> 1038.42 1048.66</time>
   <time name="total"> 1038.44 1048.67</time>
   <energy>
    <i name="e_fr_energy">  -1266.50774735 </i>
    <i name="e_wo_entrp">  -1266.50774735 </i>
    <i name="e_0_energy">  -1266.50774735 </i>
   </energy>
  </scstep>
  <scstep>
   <time name="dav">  909.48  918.35</time>
   <time name="total">  909.49  918.37</time>
   <energy>
    <i name="e_fr_energy">  -1266.50813762 </i>
    <i name="e_wo_entrp">  -1266.50813762 </i>
    <i name="e_0_energy">  -1266.50813762 </i>
   </energy>
  </scstep>
  <scstep>
   <time name="dav">  860.27  868.58</time>
   <time name="total">  860.28  868.60</time>
   <energy>
    <i name="e_fr_energy">  -1266.50816037 </i>
    <i name="e_wo_entrp">  -1266.50816037 </i>
    <i name="e_0_energy">  -1266.50816037 </i>
   </energy>
  </scstep>
  <scstep>
   <time name="dav">  711.34  718.17</time>
   <time name="total">  711.36  718.18</time>
   <energy>
    <i name="alphaZ">     89.39759806 </i>
    <i name="ewald">  95117.22170258 </i>
    <i name="hartreedc">-118376.27848986 </i>
    <i name="XCdc">   2363.78585765 </i>
    <i name="pawpsdc">  58061.33878361 </i>
    <i name="pawaedc"> -58190.04034156 </i>
    <i name="eentropy">     -0.00000000 </i>
    <i name="bandstr">  -8608.50301005 </i>
    <i name="atom">  28276.56973846 </i>
    <i name="e_fr_energy">  -1266.50816112 </i>
    <i name="e_wo_entrp">  -1266.50816112 </i>
    <i name="e_0_energy">  -1266.50816112 </i>
   </energy>
  </scstep>
  <structure>
   <crystal>
    <varray name="basis" >
     <v>      34.52197787      -0.02277254       0.00000000 </v>
     <v>     -17.27002673      29.92250008       0.00000000 </v>
     <v>       0.00000000       0.00000000      20.00000000 </v>
    </varray>
    <i name="volume">  20651.81206736 </i>
    <varray name="rec_basis" >
     <v>       0.02897809       0.01672495       0.00000000 </v>
     <v>       0.00002205       0.03343240       0.00000000 </v>
     <v>       0.00000000       0.00000000       0.05000000 </v>
    </varray>
   </crystal>
   <varray name="positions" >
    <v>       0.80593107       0.38581850       0.31070007 </v>
    <v>       0.84199014       0.56137067       0.35949237 </v>
    <v>       0.90559756       0.56097769       0.35994500 </v>
    <v>       0.77391862       0.40630677       0.38740768 </v>
    <v>       0.61081738       0.43151378       0.30992061 </v>
    <v>       0.43622177       0.28972415       0.35696862 </v>
    <v>       0.59142093       0.37839062       0.38531609 </v>
    <v>       0.43853259       0.35455456       0.35358853 </v>
    <v>       0.56434355       0.18745838       0.30973727 </v>
    <v>       0.70620663       0.15356352       0.36002513 </v>
    <v>       0.61772509       0.22202465       0.38456497 </v>
    <v>       0.64065623       0.09172654       0.35813048 </v>
    <v>       0.82270217       0.09675010       0.65896271 </v>
    <v>       0.82907908       0.04971935       0.59180056 </v>
    <v>       0.98394254       0.06154653       0.63583516 </v>
    <v>       0.90102522       0.73685400       0.65794788 </v>
    <v>       0.86280683       0.88522705       0.62175082 </v>
    <v>       0.94799629       0.78958532       0.58972699 </v>
    <v>       0.93494448       0.93220099       0.63559102 </v>
    <v>       0.01024860       0.13365077       0.62015497 </v>
    <v>       0.25919755       0.17212152       0.65824860 </v>
    <v>       0.11001650       0.98672435       0.62214357 </v>
    <v>       0.20659951       0.16682272       0.59015258 </v>
    <v>       0.06360073       0.01246257       0.63615604 </v>
    <v>       0.79799177       0.39108420       0.36931625 </v>
    <v>       0.86755390       0.54899669       0.38153767 </v>
    <v>       0.60604081       0.41775938       0.36818368 </v>
    <v>       0.44917488       0.32808461       0.37759606 </v>
    <v>       0.57826974       0.19707164       0.36783581 </v>
    <v>       0.66768416       0.12906877       0.38095654 </v>
    <v>       0.83067527       0.08563695       0.60394833 </v>
    <v>       0.98523872       0.09356340       0.60628485 </v>
    <v>       0.91196703       0.75551633       0.60261647 </v>
    <v>       0.90286181       0.90100265       0.60679713 </v>
    <v>       0.24061387       0.16474313       0.60287669 </v>
    <v>       0.09457022       0.01124467       0.60718939 </v>
    <v>       0.80105855       0.26531877       0.47622128 </v>
    <v>       0.80249419       0.19615109       0.49032619 </v>
    <v>       0.82512571       0.24280903       0.48239857 </v>
    <v>       0.80087486       0.61635975       0.49043657 </v>
    <v>       0.89151057       0.06641759       0.45072515 </v>
    <v>       0.91519542       0.04355742       0.45194480 </v>
    <v>       0.85934000       0.17776924       0.44549534 </v>
    <v>       0.88152186       0.15343067       0.44797623 </v>
    <v>       0.92979518       0.83535511       0.44964385 </v>
    <v>       0.95237498       0.88188822       0.45109971 </v>
    <v>       0.81903741       0.69137901       0.44514125 </v>
    <v>       0.84329523       0.73790492       0.44736501 </v>
    <v>       0.85164720       0.51697732       0.43791656 </v>
    <v>       0.86205584       0.48285505       0.43489774 </v>
    <v>       0.84307076       0.40562975       0.47460550 </v>
    <v>       0.81822851       0.37675493       0.42209297 </v>
    <v>       0.80773996       0.33235354       0.41930077 </v>
    <v>       0.82162131       0.31455979       0.47078448 </v>
    <v>       0.75418685       0.24047625       0.47755844 </v>
    <v>       0.73158235       0.54567690       0.47718808 </v>
    <v>       0.75638858       0.52365425       0.47878353 </v>
    <v>       0.75416014       0.59228403       0.48283069 </v>
    <v>       0.45065812       0.19562443       0.47644796 </v>
    <v>       0.47264709       0.24245416       0.47736986 </v>
    <v>       0.37989467       0.19406332       0.48961583 </v>
    <v>       0.40403972       0.17151561       0.48237595 </v>
    <v>       0.16089241       0.10359776       0.44993795 </v>
    <v>       0.11432156       0.08011344       0.45156545 </v>
    <v>       0.30481897       0.13681917       0.44474970 </v>
    <v>       0.25824959       0.11422530       0.44722942 </v>
    <v>       0.48023414       0.34424190       0.43524450 </v>
    <v>       0.51447397       0.38877381       0.43269563 </v>
    <v>       0.59113547       0.44715833       0.47430771 </v>
    <v>       0.62019263       0.45176696       0.42173821 </v>
    <v>       0.66463120       0.48574971       0.41948076 </v>
    <v>       0.68230084       0.51694395       0.47159588 </v>
    <v>       0.65199458       0.14535491       0.43741914 </v>
    <v>       0.60746109       0.13509741       0.43474868 </v>
    <v>       0.54922301       0.15393162       0.47497329 </v>
    <v>       0.54442133       0.17777774       0.42173096 </v>
    <v>       0.51041253       0.18815312       0.41906010 </v>
    <v>       0.47938989       0.17510166       0.47137798 </v>
    <v>       0.97124118       0.02613507       0.50143974 </v>
    <v>       0.94727520       0.97937832       0.50098377 </v>
    <v>       0.96973661       0.95502396       0.50138522 </v>
    <v>       0.80292186       0.54714605       0.48660079 </v>
    <v>       0.82502852       0.59361866       0.49307099 </v>
    <v>       0.82467967       0.51931654       0.48853288 </v>
    <v>       0.84515415       0.44927736       0.48348359 </v>
    <v>       0.94671374       0.05114043       0.50208063 </v>
    <v>       0.95369857       0.08366215       0.55013943 </v>
    <v>       0.93060197       0.10708092       0.54959808 </v>
    <v>       0.89854876       0.09802588       0.50021786 </v>
    <v>       0.87336776       0.12245731       0.49914361 </v>
    <v>       0.84217861       0.11776785       0.54820872 </v>
    <v>       0.81969648       0.14181820       0.54653451 </v>
    <v>       0.82769885       0.17193972       0.49446833 </v>
    <v>       0.94484952       0.90549787       0.50178089 </v>
    <v>       0.91267140       0.87968319       0.55012684 </v>
    <v>       0.88955449       0.83317252       0.54936271 </v>
    <v>       0.89857383       0.81049784       0.49945478 </v>
    <v>       0.87444166       0.76090682       0.49829207 </v>
    <v>       0.87948781       0.73462710       0.54729682 </v>
    <v>       0.85549411       0.68809448       0.54590626 </v>
    <v>       0.82512539       0.66577958       0.49414633 </v>
    <v>       0.82316311       0.45426389       0.53904757 </v>
    <v>       0.81326705       0.48861472       0.54125995 </v>
    <v>       0.85000592       0.34375970       0.52038277 </v>
    <v>       0.86036269       0.38832868       0.52208726 </v>
    <v>       0.01651318       0.97784794       0.50125245 </v>
    <v>       0.04092538       0.02465600       0.50171156 </v>
    <v>       0.01810716       0.04857940       0.50125441 </v>
    <v>       0.73115187       0.19401597       0.48579496 </v>
    <v>       0.75556010       0.17198845       0.49284632 </v>
    <v>       0.44909264       0.26541576       0.48487486 </v>
    <v>       0.40259502       0.24097911       0.49165052 </v>
    <v>       0.47698664       0.31503772       0.48662666 </v>
    <v>       0.54737635       0.40555409       0.48236123 </v>
    <v>       0.68151588       0.17232764       0.48785302 </v>
    <v>       0.59093968       0.15206048       0.48345860 </v>
    <v>       0.09048635       0.04907050       0.50225872 </v>
    <v>       0.11610779       0.04230328       0.55046291 </v>
    <v>       0.16266121       0.06522293       0.54950000 </v>
    <v>       0.18558050       0.09683722       0.49956681 </v>
    <v>       0.23522200       0.12215147       0.49833914 </v>
    <v>       0.26154805       0.15348118       0.54733135 </v>
    <v>       0.30811699       0.17637158       0.54568570 </v>
    <v>       0.33044339       0.16862808       0.49363919 </v>
    <v>       0.54152583       0.37862358       0.53834622 </v>
    <v>       0.50698878       0.33440917       0.54019095 </v>
    <v>       0.65296461       0.51555709       0.52142555 </v>
    <v>       0.60836316       0.48127565       0.52258052 </v>
    <v>       0.61815210       0.17412182       0.53880235 </v>
    <v>       0.66241394       0.18392378       0.54065408 </v>
    <v>       0.48090081       0.14762905       0.52185713 </v>
    <v>       0.51522353       0.13740738       0.52345178 </v>
    <v>       0.86163876       0.26144631       0.48116902 </v>
    <v>       0.86678618       0.05926745       0.41163090 </v>
    <v>       0.90966734       0.01926828       0.41289857 </v>
    <v>       0.86586441       0.20098469       0.40435268 </v>
    <v>       0.90609075       0.15839997       0.40967796 </v>
    <v>       0.93691037       0.81801765       0.41017276 </v>
    <v>       0.97641196       0.90090563       0.41187287 </v>
    <v>       0.79566253       0.67452225       0.40420928 </v>
    <v>       0.83809085       0.75736664       0.40912977 </v>
    <v>       0.78702280       0.31123827       0.37846814 </v>
    <v>       0.88102130       0.48160519       0.39219193 </v>
    <v>       0.73513469       0.25772414       0.47246751 </v>
    <v>       0.73553512       0.61013614       0.48137081 </v>
    <v>       0.73907676       0.48733266       0.47400124 </v>
    <v>       0.38622391       0.13502694       0.48146418 </v>
    <v>       0.50899061       0.26151139       0.47247175 </v>
    <v>       0.17841708       0.12801739       0.41048843 </v>
    <v>       0.09545113       0.08542082       0.41243581 </v>
    <v>       0.32170026       0.13049110       0.40366269 </v>
    <v>       0.23879497       0.08953351       0.40900088 </v>
    <v>       0.68590025       0.48655921       0.37857370 </v>
    <v>       0.51634995       0.40891914       0.38954446 </v>
    <v>       0.50944852       0.20819009       0.37767170 </v>
    <v>       0.58707085       0.11605796       0.39222395 </v>
    <v>       0.91077084       0.96187956       0.50196539 </v>
    <v>       0.86135187       0.61261883       0.49832952 </v>
    <v>       0.79611523       0.13684295       0.58637486 </v>
    <v>       0.93763295       0.13190299       0.58838346 </v>
    <v>       0.86066413       0.66964115       0.58575296 </v>
    <v>       0.86494566       0.81514756       0.58833982 </v>
    <v>       0.81083903       0.42900150       0.57838212 </v>
    <v>       0.79398087       0.49062820       0.58294104 </v>
    <v>       0.86197283       0.33078725       0.56019113 </v>
    <v>       0.88099454       0.41007514       0.56253145 </v>
    <v>       0.03399649       0.95886103       0.50241986 </v>
    <v>       0.03712437       0.08505039       0.50236443 </v>
    <v>       0.73824952       0.13571529       0.49840696 </v>
    <v>       0.38356500       0.25824866       0.49675134 </v>
    <v>       0.32657788       0.20001337       0.58552656 </v>
    <v>       0.18053388       0.05840058       0.58841915 </v>
    <v>       0.56624314       0.39156210       0.57846944 </v>
    <v>       0.50432163       0.31316697       0.58231464 </v>
    <v>       0.66583147       0.54011655       0.56175621 </v>
    <v>       0.58650118       0.47974824       0.56314108 </v>
    <v>       0.60538519       0.18653041       0.57826925 </v>
    <v>       0.68389376       0.20327766       0.58214604 </v>
    <v>       0.45642733       0.13628424       0.56231238 </v>
    <v>       0.51691949       0.11749895       0.56449467 </v>
   </varray>
  </structure>
  <varray name="forces" >
   <v>      -0.00048805      -0.00130069       0.00040449 </v>
   <v>      -0.00269155       0.00135625      -0.00036199 </v>
   <v>      -0.00179189      -0.00211003       0.00165851 </v>
   <v>       0.00100158      -0.00039219      -0.00324510 </v>
   <v>       0.00107367      -0.00125140       0.00161450 </v>
   <v>      -0.00375087       0.00351437       0.00114506 </v>
   <v>       0.00088244      -0.00239794       0.00259977 </v>
   <v>      -0.00124791       0.00087248      -0.00376849 </v>
   <v>      -0.00135204      -0.00009292       0.00387013 </v>
   <v>       0.00013014       0.00246560      -0.00151163 </v>
   <v>       0.00055102       0.00361954       0.00190059 </v>
   <v>      -0.00170323       0.00243452       0.00116934 </v>
   <v>      -0.00048778       0.00189218       0.00447344 </v>
   <v>      -0.00254401       0.00302209       0.00014104 </v>
   <v>      -0.00027276       0.00084585      -0.00048462 </v>
   <v>      -0.00062703       0.00207018      -0.00138750 </v>
   <v>       0.00903672       0.00307641       0.00137643 </v>
   <v>       0.00003365      -0.00654511       0.00031198 </v>
   <v>      -0.00305426      -0.00081378       0.00189850 </v>
   <v>      -0.00172565      -0.00447403      -0.00067926 </v>
   <v>       0.00096779      -0.00062528      -0.00156750 </v>
   <v>       0.00058421       0.00296664      -0.00256401 </v>
   <v>       0.00096233       0.00140304       0.00062326 </v>
   <v>       0.00326720      -0.00158548      -0.00023278 </v>
   <v>      -0.00577095       0.00430969       0.00818761 </v>
   <v>       0.00465117       0.00062468      -0.00210487 </v>
   <v>      -0.00285663       0.00148103      -0.00747024 </v>
   <v>       0.00052292       0.00205673      -0.00587526 </v>
   <v>      -0.00025066       0.00197792      -0.00270317 </v>
   <v>       0.00064332      -0.00063921      -0.00075932 </v>
   <v>       0.00432351      -0.00483126      -0.00035809 </v>
   <v>      -0.00047687       0.00530940      -0.00527480 </v>
   <v>       0.00510422       0.00514987       0.00127020 </v>
   <v>       0.00141851      -0.00642868      -0.00048256 </v>
   <v>      -0.00137177      -0.00071634      -0.00126273 </v>
   <v>      -0.00164683       0.00111427       0.00146278 </v>
   <v>       0.00089996      -0.00093937      -0.00075045 </v>
   <v>      -0.00017354       0.00051598       0.00079195 </v>
   <v>       0.00020786       0.00087099       0.00155128 </v>
   <v>       0.00212035      -0.00071273       0.00012931 </v>
   <v>       0.00278278       0.00139655      -0.00010253 </v>
   <v>       0.00075240      -0.00139886       0.00224483 </v>
   <v>       0.00178887       0.00214896       0.00069176 </v>
   <v>      -0.00103465       0.00188489      -0.00223905 </v>
   <v>       0.00177144      -0.00019163       0.00267714 </v>
   <v>      -0.00424419       0.00153743       0.00230193 </v>
   <v>       0.00076729      -0.00192497       0.00229608 </v>
   <v>      -0.00030570       0.00145594       0.00137311 </v>
   <v>      -0.00026872       0.00206848      -0.00002547 </v>
   <v>      -0.00022367      -0.00069448      -0.00100115 </v>
   <v>       0.00189707       0.00089581      -0.00140988 </v>
   <v>       0.00177443       0.00113149      -0.00078974 </v>
   <v>       0.00161849       0.00217147      -0.00175132 </v>
   <v>      -0.00218801      -0.00046933      -0.00182590 </v>
   <v>      -0.00121948      -0.00199731       0.00003240 </v>
   <v>      -0.00067492      -0.00197537       0.00008790 </v>
   <v>       0.00193408      -0.00144984      -0.00218958 </v>
   <v>      -0.00079216      -0.00240527       0.00128124 </v>
   <v>      -0.00010180      -0.00018780      -0.00138807 </v>
   <v>       0.00206919      -0.00096988      -0.00067979 </v>
   <v>       0.00019557      -0.00111119      -0.00173644 </v>
   <v>       0.00081463       0.00005272      -0.00012271 </v>
   <v>       0.00019485       0.00044997       0.00064288 </v>
   <v>       0.00045685       0.00119501       0.00041947 </v>
   <v>       0.00018558      -0.00046466      -0.00134761 </v>
   <v>      -0.00068895       0.00002544      -0.00007891 </v>
   <v>      -0.00322479      -0.00033879      -0.00413455 </v>
   <v>       0.00284635      -0.00087859      -0.00179549 </v>
   <v>       0.00225646       0.00132224       0.00019311 </v>
   <v>       0.00167121       0.00148127      -0.00068472 </v>
   <v>       0.00247765      -0.00101084      -0.00065989 </v>
   <v>      -0.00172946       0.00024213       0.00381502 </v>
   <v>       0.00055078      -0.00001913      -0.00083706 </v>
   <v>      -0.00103745      -0.00152547      -0.00064765 </v>
   <v>      -0.00231728      -0.00146724       0.00034333 </v>
   <v>       0.00032594      -0.00154375      -0.00076745 </v>
   <v>       0.00097260       0.00104743      -0.00083470 </v>
   <v>       0.00063930       0.00037902       0.00078996 </v>
   <v>      -0.00089976      -0.00121449       0.00130245 </v>
   <v>      -0.00032858      -0.00003816       0.00106221 </v>
   <v>       0.00004699       0.00154191      -0.00049029 </v>
   <v>      -0.00109544      -0.00107818       0.00116512 </v>
   <v>       0.00228756      -0.00031933      -0.00019668 </v>
   <v>      -0.00097578       0.00183881       0.00031707 </v>
   <v>       0.00074908      -0.00043416      -0.00012830 </v>
[...]
       <r>   -16.1641    20.1889   176.3636 </r>
       <r>   -16.0470     4.8402   180.0000 </r>
       <r>   -15.9299     0.0000   180.0000 </r>
       <r>   -15.8129     0.0000   180.0000 </r>
       <r>   -15.6958     0.0012   180.0001 </r>
       <r>   -15.5787    23.3469   186.0000 </r>
       <r>   -15.4616    12.1011   187.4167 </r>
       <r>   -15.3446    14.7943   192.5987 </r>
       <r>   -15.2275    28.7566   198.0000 </r>
       <r>   -15.1104     0.0000   198.0000 </r>
       <r>   -14.9933    51.2453   203.9995 </r>
       <r>   -14.8763     0.2864   204.0335 </r>
       <r>   -14.7592    33.6661   209.9414 </r>
       <r>   -14.6421    22.2080   214.0000 </r>
       <r>   -14.5250    16.6546   215.9498 </r>
       <r>   -14.4080     0.0000   216.0000 </r>
       <r>   -14.2909    29.0767   219.4041 </r>
       <r>   -14.1738    46.6938   226.0000 </r>
       <r>   -14.0567    17.0831   228.0000 </r>
       <r>   -13.9397    34.1662   232.0000 </r>
       <r>   -13.8226     0.0018   232.0002 </r>
       <r>   -13.7055    34.1662   238.0000 </r>
       <r>   -13.5884     0.0000   238.0000 </r>
       <r>   -13.4714    34.2488   242.0097 </r>
       <r>   -13.3543    20.1970   245.2979 </r>
       <r>   -13.2372    34.1668   252.0001 </r>
       <r>   -13.1201    16.9305   257.9821 </r>
       <r>   -13.0031    65.1216   265.6241 </r>
       <r>   -12.8860    14.8500   269.7386 </r>
       <r>   -12.7689    17.0831   276.0000 </r>
       <r>   -12.6518    51.2493   282.0000 </r>
       <r>   -12.5348    99.5398   293.6536 </r>
       <r>   -12.4177    80.7539   303.4542 </r>
       <r>   -12.3006    51.2493   312.0000 </r>
       <r>   -12.1835     0.0488   312.0057 </r>
       <r>   -12.0665    60.2666   322.6224 </r>
       <r>   -11.9494    79.1407   335.2654 </r>
       <r>   -11.8323    13.2178   337.5475 </r>
       <r>   -11.7152    51.5722   344.0378 </r>
       <r>   -11.5982     0.1203   348.0141 </r>
       <r>   -11.4811    54.9070   357.8616 </r>
       <r>   -11.3640    51.2493   364.0000 </r>
       <r>   -11.2470    45.6657   369.3463 </r>
       <r>   -11.1299     0.5268   372.0617 </r>
       <r>   -11.0128    71.6726   382.3910 </r>
       <r>   -10.8957     0.0000   386.0000 </r>
       <r>   -10.7787    59.6678   392.9856 </r>
       <r>   -10.6616     7.6874   398.0000 </r>
       <r>   -10.5445    17.0831   400.0000 </r>
       <r>   -10.4274    34.1662   404.0000 </r>
       <r>   -10.3104     0.0000   404.0000 </r>
       <r>   -10.1933     0.0000   404.0000 </r>
       <r>   -10.0762    82.5806   413.6681 </r>
       <r>    -9.9591     0.0000   416.0000 </r>
       <r>    -9.8421    17.1788   418.0112 </r>
       <r>    -9.7250    33.2443   427.8921 </r>
       <r>    -9.6079     7.1481   428.8369 </r>
       <r>    -9.4908     4.6853   434.5485 </r>
       <r>    -9.3738    49.7882   445.8289 </r>
       <r>    -9.2567    51.3413   454.0108 </r>
       <r>    -9.1396    62.7812   465.3501 </r>
       <r>    -9.0225    19.9656   468.3375 </r>
       <r>    -8.9055    18.4244   476.1570 </r>
       <r>    -8.7884    17.0831   482.0000 </r>
       <r>    -8.6713    16.7340   483.9591 </r>
       <r>    -8.5542    48.5332   489.6820 </r>
       <r>    -8.4372    36.7801   495.6727 </r>
       <r>    -8.3201     0.0000   496.0000 </r>
       <r>    -8.2030    34.1662   500.0000 </r>
       <r>    -8.0859     0.0000   500.0000 </r>
       <r>    -7.9689     0.0000   500.0000 </r>
       <r>    -7.8518     0.0000   500.0000 </r>
       <r>    -7.7347    51.2493   506.0000 </r>
       <r>    -7.6176    40.3503   510.7240 </r>
       <r>    -7.5006    84.8737   521.9366 </r>
       <r>    -7.3835    51.2143   529.9959 </r>
       <r>    -7.2664    55.1573   536.4575 </r>
       <r>    -7.1493    53.3698   547.3483 </r>
       <r>    -7.0323    68.3324   566.0000 </r>
       <r>    -6.9152    23.7318   568.7784 </r>
       <r>    -6.7981    68.3309   581.9998 </r>
       <r>    -6.6810    21.9475   584.5695 </r>
       <r>    -6.5640    17.1967   588.0133 </r>
       <r>    -6.4469    98.7761   601.5642 </r>
       <r>    -6.3298    52.7154   608.1716 </r>
       <r>    -6.2127    24.9440   614.9203 </r>
       <r>    -6.0957    34.6362   620.0550 </r>
       <r>    -5.9786    31.3120   628.6992 </r>
       <r>    -5.8615    17.0831   632.0000 </r>
       <r>    -5.7444    34.1498   635.9981 </r>
       <r>    -5.6274     0.0000   636.0000 </r>
       <r>    -5.5103     0.0000   636.0000 </r>
       <r>    -5.3932     0.0000   636.0000 </r>
       <r>    -5.2761     0.0000   636.0000 </r>
       <r>    -5.1591     0.0000   636.0000 </r>
       <r>    -5.0420     0.0000   636.0000 </r>
       <r>    -4.9249     0.0000   636.0000 </r>
       <r>    -4.8078     0.0000   636.0000 </r>
       <r>    -4.6908     0.0000   636.0000 </r>
       <r>    -4.5737     0.0000   636.0000 </r>
       <r>    -4.4566     0.0000   636.0000 </r>
       <r>    -4.3395     0.0000   636.0000 </r>
       <r>    -4.2225     0.0000   636.0000 </r>
       <r>    -4.1054     0.0000   636.0000 </r>
       <r>    -3.9883     0.0000   636.0000 </r>
       <r>    -3.8712     0.0000   636.0000 </r>
       <r>    -3.7542     0.0000   636.0000 </r>
       <r>    -3.6371     0.0000   636.0000 </r>
       <r>    -3.5200     0.0000   636.0000 </r>
       <r>    -3.4029     0.0000   636.0000 </r>
       <r>    -3.2859    51.3765   642.0149 </r>
       <r>    -3.1688    50.8281   653.9507 </r>
       <r>    -3.0517     0.0000   654.0000 </r>
       <r>    -2.9346     0.0000   654.0000 </r>
       <r>    -2.8176    50.4565   659.9072 </r>
       <r>    -2.7005     0.0000   660.0000 </r>
       <r>    -2.5834     0.0000   660.0000 </r>
       <r>    -2.4663    17.0831   662.0000 </r>
       <r>    -2.3493    34.1657   665.9999 </r>
       <r>    -2.2322     0.0000   666.0000 </r>
       <r>    -2.1151    41.5689   672.0000 </r>
       <r>    -1.9980     0.0000   672.0000 </r>
       <r>    -1.8810     4.4152   672.5169 </r>
       <r>    -1.7639    37.2219   680.3577 </r>
       <r>    -1.6468    25.0552   686.0000 </r>
       <r>    -1.5297    33.7935   689.9564 </r>
       <r>    -1.4127    30.5622   696.3781 </r>
       <r>    -1.2956    24.7498   702.8976 </r>
       <r>    -1.1785    36.1312   708.2301 </r>
       <r>    -1.0614    17.0831   714.0000 </r>
       <r>    -0.9444    34.1239   717.9950 </r>
       <r>    -0.8273    17.0831   720.0000 </r>
       <r>    -0.7102     0.0000   720.0000 </r>
       <r>    -0.5932    51.2424   725.9992 </r>
       <r>    -0.4761     0.0000   726.0000 </r>
       <r>    -0.3590    34.1662   730.0000 </r>
       <r>    -0.2419    17.0834   732.0000 </r>
       <r>    -0.1249    23.1125   736.0059 </r>
       <r>    -0.0078    30.1655   741.5316 </r>
       <r>     0.1093    21.8279   745.5555 </r>
       <r>     0.2264    58.3641   754.6996 </r>
       <r>     0.3434    51.2530   762.0004 </r>
       <r>     0.4605    25.6465   770.0359 </r>
       <r>     0.5776    60.3580   781.9997 </r>
       <r>     0.6947    81.9111   791.5897 </r>
       <r>     0.8117    65.4778   799.6658 </r>
       <r>     0.9288    83.4942   814.0751 </r>
       <r>     1.0459    80.5763   827.8001 </r>
       <r>     1.1630     7.9721   832.0000 </r>
       <r>     1.2800     0.0000   832.0000 </r>
       <r>     1.3971     0.0000   832.0000 </r>
       <r>     1.5142     0.0000   832.0000 </r>
       <r>     1.6313     0.0000   832.0000 </r>
       <r>     1.7483     0.0000   832.0000 </r>
       <r>     1.8654     0.0000   832.0000 </r>
       <r>     1.9825     0.0000   832.0000 </r>
       <r>     2.0996     0.0000   832.0000 </r>
       <r>     2.2166     0.0000   832.0000 </r>
       <r>     2.3337     0.0000   832.0000 </r>
       <r>     2.4508     0.0000   832.0000 </r>
       <r>     2.5679     0.0000   832.0000 </r>
       <r>     2.6849     0.0000   832.0000 </r>
      </set>
     </set>
    </array>
   </total>
  </dos>
 </calculation>
 <structure name="finalpos" >
  <crystal>
   <varray name="basis" >
    <v>      34.52197787      -0.02277254       0.00000000 </v>
    <v>     -17.27002673      29.92250008       0.00000000 </v>
    <v>       0.00000000       0.00000000      20.00000000 </v>
   </varray>
   <i name="volume">  20651.81206736 </i>
   <varray name="rec_basis" >
    <v>       0.02897809       0.01672495       0.00000000 </v>
    <v>       0.00002205       0.03343240       0.00000000 </v>
    <v>       0.00000000       0.00000000       0.05000000 </v>
   </varray>
  </crystal>
  <varray name="positions" >
   <v>       0.80593107       0.38581850       0.31070007 </v>
   <v>       0.84199014       0.56137067       0.35949237 </v>
   <v>       0.90559756       0.56097769       0.35994500 </v>
   <v>       0.77391862       0.40630677       0.38740768 </v>
   <v>       0.61081738       0.43151378       0.30992061 </v>
   <v>       0.43622177       0.28972415       0.35696862 </v>
   <v>       0.59142093       0.37839062       0.38531609 </v>
   <v>       0.43853259       0.35455456       0.35358853 </v>
   <v>       0.56434355       0.18745838       0.30973727 </v>
   <v>       0.70620663       0.15356352       0.36002513 </v>
   <v>       0.61772509       0.22202465       0.38456497 </v>
   <v>       0.64065623       0.09172654       0.35813048 </v>
   <v>       0.82270217       0.09675010       0.65896271 </v>
   <v>       0.82907908       0.04971935       0.59180056 </v>
   <v>       0.98394254       0.06154653       0.63583516 </v>
   <v>       0.90102522       0.73685400       0.65794788 </v>
   <v>       0.86280683       0.88522705       0.62175082 </v>
   <v>       0.94799629       0.78958532       0.58972699 </v>
   <v>       0.93494448       0.93220099       0.63559102 </v>
   <v>       0.01024860       0.13365077       0.62015497 </v>
   <v>       0.25919755       0.17212152       0.65824860 </v>
   <v>       0.11001650       0.98672435       0.62214357 </v>
   <v>       0.20659951       0.16682272       0.59015258 </v>
   <v>       0.06360073       0.01246257       0.63615604 </v>
   <v>       0.79799177       0.39108420       0.36931625 </v>
   <v>       0.86755390       0.54899669       0.38153767 </v>
   <v>       0.60604081       0.41775938       0.36818368 </v>
   <v>       0.44917488       0.32808461       0.37759606 </v>
   <v>       0.57826974       0.19707164       0.36783581 </v>
   <v>       0.66768416       0.12906877       0.38095654 </v>
   <v>       0.83067527       0.08563695       0.60394833 </v>
   <v>       0.98523872       0.09356340       0.60628485 </v>
   <v>       0.91196703       0.75551633       0.60261647 </v>
   <v>       0.90286181       0.90100265       0.60679713 </v>
   <v>       0.24061387       0.16474313       0.60287669 </v>
   <v>       0.09457022       0.01124467       0.60718939 </v>
   <v>       0.80105855       0.26531877       0.47622128 </v>
   <v>       0.80249419       0.19615109       0.49032619 </v>
   <v>       0.82512571       0.24280903       0.48239857 </v>
   <v>       0.80087486       0.61635975       0.49043657 </v>
   <v>       0.89151057       0.06641759       0.45072515 </v>
   <v>       0.91519542       0.04355742       0.45194480 </v>
   <v>       0.85934000       0.17776924       0.44549534 </v>
   <v>       0.88152186       0.15343067       0.44797623 </v>
   <v>       0.92979518       0.83535511       0.44964385 </v>
   <v>       0.95237498       0.88188822       0.45109971 </v>
   <v>       0.81903741       0.69137901       0.44514125 </v>
   <v>       0.84329523       0.73790492       0.44736501 </v>
   <v>       0.85164720       0.51697732       0.43791656 </v>
   <v>       0.86205584       0.48285505       0.43489774 </v>
   <v>       0.84307076       0.40562975       0.47460550 </v>
   <v>       0.81822851       0.37675493       0.42209297 </v>
   <v>       0.80773996       0.33235354       0.41930077 </v>
   <v>       0.82162131       0.31455979       0.47078448 </v>
   <v>       0.75418685       0.24047625       0.47755844 </v>
   <v>       0.73158235       0.54567690       0.47718808 </v>
   <v>       0.75638858       0.52365425       0.47878353 </v>
   <v>       0.75416014       0.59228403       0.48283069 </v>
   <v>       0.45065812       0.19562443       0.47644796 </v>
   <v>       0.47264709       0.24245416       0.47736986 </v>
   <v>       0.37989467       0.19406332       0.48961583 </v>
   <v>       0.40403972       0.17151561       0.48237595 </v>
   <v>       0.16089241       0.10359776       0.44993795 </v>
   <v>       0.11432156       0.08011344       0.45156545 </v>
   <v>       0.30481897       0.13681917       0.44474970 </v>
   <v>       0.25824959       0.11422530       0.44722942 </v>
   <v>       0.48023414       0.34424190       0.43524450 </v>
   <v>       0.51447397       0.38877381       0.43269563 </v>
   <v>       0.59113547       0.44715833       0.47430771 </v>
   <v>       0.62019263       0.45176696       0.42173821 </v>
   <v>       0.66463120       0.48574971       0.41948076 </v>
   <v>       0.68230084       0.51694395       0.47159588 </v>
   <v>       0.65199458       0.14535491       0.43741914 </v>
   <v>       0.60746109       0.13509741       0.43474868 </v>
   <v>       0.54922301       0.15393162       0.47497329 </v>
   <v>       0.54442133       0.17777774       0.42173096 </v>
   <v>       0.51041253       0.18815312       0.41906010 </v>
   <v>       0.47938989       0.17510166       0.47137798 </v>
   <v>       0.97124118       0.02613507       0.50143974 </v>
   <v>       0.94727520       0.97937832       0.50098377 </v>
   <v>       0.96973661       0.95502396       0.50138522 </v>
   <v>       0.80292186       0.54714605       0.48660079 </v>
   <v>       0.82502852       0.59361866       0.49307099 </v>
   <v>       0.82467967       0.51931654       0.48853288 </v>
   <v>       0.84515415       0.44927736       0.48348359 </v>
   <v>       0.94671374       0.05114043       0.50208063 </v>
   <v>       0.95369857       0.08366215       0.55013943 </v>
   <v>       0.93060197       0.10708092       0.54959808 </v>
   <v>       0.89854876       0.09802588       0.50021786 </v>
   <v>       0.87336776       0.12245731       0.49914361 </v>
   <v>       0.84217861       0.11776785       0.54820872 </v>
   <v>       0.81969648       0.14181820       0.54653451 </v>
   <v>       0.82769885       0.17193972       0.49446833 </v>
   <v>       0.94484952       0.90549787       0.50178089 </v>
   <v>       0.91267140       0.87968319       0.55012684 </v>
   <v>       0.88955449       0.83317252       0.54936271 </v>
   <v>       0.89857383       0.81049784       0.49945478 </v>
   <v>       0.87444166       0.76090682       0.49829207 </v>
   <v>       0.87948781       0.73462710       0.54729682 </v>
   <v>       0.85549411       0.68809448       0.54590626 </v>
   <v>       0.82512539       0.66577958       0.49414633 </v>
   <v>       0.82316311       0.45426389       0.53904757 </v>
   <v>       0.81326705       0.48861472       0.54125995 </v>
   <v>       0.85000592       0.34375970       0.52038277 </v>
   <v>       0.86036269       0.38832868       0.52208726 </v>
   <v>       0.01651318       0.97784794       0.50125245 </v>
   <v>       0.04092538       0.02465600       0.50171156 </v>
   <v>       0.01810716       0.04857940       0.50125441 </v>
   <v>       0.73115187       0.19401597       0.48579496 </v>
   <v>       0.75556010       0.17198845       0.49284632 </v>
   <v>       0.44909264       0.26541576       0.48487486 </v>
   <v>       0.40259502       0.24097911       0.49165052 </v>
   <v>       0.47698664       0.31503772       0.48662666 </v>
   <v>       0.54737635       0.40555409       0.48236123 </v>
   <v>       0.68151588       0.17232764       0.48785302 </v>
   <v>       0.59093968       0.15206048       0.48345860 </v>
   <v>       0.09048635       0.04907050       0.50225872 </v>
   <v>       0.11610779       0.04230328       0.55046291 </v>
   <v>       0.16266121       0.06522293       0.54950000 </v>
   <v>       0.18558050       0.09683722       0.49956681 </v>
   <v>       0.23522200       0.12215147       0.49833914 </v>
   <v>       0.26154805       0.15348118       0.54733135 </v>
   <v>       0.30811699       0.17637158       0.54568570 </v>
   <v>       0.33044339       0.16862808       0.49363919 </v>
   <v>       0.54152583       0.37862358       0.53834622 </v>
   <v>       0.50698878       0.33440917       0.54019095 </v>
   <v>       0.65296461       0.51555709       0.52142555 </v>
   <v>       0.60836316       0.48127565       0.52258052 </v>
   <v>       0.61815210       0.17412182       0.53880235 </v>
   <v>       0.66241394       0.18392378       0.54065408 </v>
   <v>       0.48090081       0.14762905       0.52185713 </v>
   <v>       0.51522353       0.13740738       0.52345178 </v>
   <v>       0.86163876       0.26144631       0.48116902 </v>
   <v>       0.86678618       0.05926745       0.41163090 </v>
   <v>       0.90966734       0.01926828       0.41289857 </v>
   <v>       0.86586441       0.20098469       0.40435268 </v>
   <v>       0.90609075       0.15839997       0.40967796 </v>
   <v>       0.93691037       0.81801765       0.41017276 </v>
   <v>       0.97641196       0.90090563       0.41187287 </v>
   <v>       0.79566253       0.67452225       0.40420928 </v>
   <v>       0.83809085       0.75736664       0.40912977 </v>
   <v>       0.78702280       0.31123827       0.37846814 </v>
   <v>       0.88102130       0.48160519       0.39219193 </v>
   <v>       0.73513469       0.25772414       0.47246751 </v>
   <v>       0.73553512       0.61013614       0.48137081 </v>
   <v>       0.73907676       0.48733266       0.47400124 </v>
   <v>       0.38622391       0.13502694       0.48146418 </v>
   <v>       0.50899061       0.26151139       0.47247175 </v>
   <v>       0.17841708       0.12801739       0.41048843 </v>
   <v>       0.09545113       0.08542082       0.41243581 </v>
   <v>       0.32170026       0.13049110       0.40366269 </v>
   <v>       0.23879497       0.08953351       0.40900088 </v>
   <v>       0.68590025       0.48655921       0.37857370 </v>
   <v>       0.51634995       0.40891914       0.38954446 </v>
   <v>       0.50944852       0.20819009       0.37767170 </v>
   <v>       0.58707085       0.11605796       0.39222395 </v>
   <v>       0.91077084       0.96187956       0.50196539 </v>
   <v>       0.86135187       0.61261883       0.49832952 </v>
   <v>       0.79611523       0.13684295       0.58637486 </v>
   <v>       0.93763295       0.13190299       0.58838346 </v>
   <v>       0.86066413       0.66964115       0.58575296 </v>
   <v>       0.86494566       0.81514756       0.58833982 </v>
   <v>       0.81083903       0.42900150       0.57838212 </v>
   <v>       0.79398087       0.49062820       0.58294104 </v>
   <v>       0.86197283       0.33078725       0.56019113 </v>
   <v>       0.88099454       0.41007514       0.56253145 </v>
   <v>       0.03399649       0.95886103       0.50241986 </v>
   <v>       0.03712437       0.08505039       0.50236443 </v>
   <v>       0.73824952       0.13571529       0.49840696 </v>
   <v>       0.38356500       0.25824866       0.49675134 </v>
   <v>       0.32657788       0.20001337       0.58552656 </v>
   <v>       0.18053388       0.05840058       0.58841915 </v>
   <v>       0.56624314       0.39156210       0.57846944 </v>
   <v>       0.50432163       0.31316697       0.58231464 </v>
   <v>       0.66583147       0.54011655       0.56175621 </v>
   <v>       0.58650118       0.47974824       0.56314108 </v>
   <v>       0.60538519       0.18653041       0.57826925 </v>
   <v>       0.68389376       0.20327766       0.58214604 </v>
   <v>       0.45642733       0.13628424       0.56231238 </v>
   <v>       0.51691949       0.11749895       0.56449467 </v>
  </varray>
 </structure>
</modeling>
