<?xml version="1.0" encoding="ISO-8859-1"?>
<modeling>
 <generator>
  <i name="program" type="string">vasp </i>
  <i name="version" type="string">5.4.4.18Apr17-6-g9f103f2a35  </i>
  <i name="subversion" type="string">(build Jun 07 2020 16:50:00) complex            parallel </i>
  <i name="platform" type="string">LinuxIFC </i>
  <i name="date" type="string">2023 02 14 </i>
  <i name="time" type="string">05:36:26 </i>
 </generator>
 <incar>
  <i type="string" name="SYSTEM">Simulation for cell shape cell volume r</i>
  <i type="int" name="ISTART">     1</i>
  <i type="string" name="PREC">high</i>
  <i type="string" name="ALGO">48</i>
  <i type="int" name="ICHARG">    11</i>
  <i type="int" name="NELM">   200</i>
  <i type="int" name="IBRION">    -1</i>
  <i name="EDIFF">      0.00001000</i>
  <i name="EDIFFG">     -0.01000000</i>
  <i type="int" name="NSW">     0</i>
  <i type="int" name="ISIF">     2</i>
  <i name="ENCUT">    500.00000000</i>
  <i name="POTIM">      0.30000000</i>
  <i type="string" name="LREAL">A</i>
  <i type="int" name="ISMEAR">     0</i>
  <i name="SIGMA">      0.01000000</i>
  <i type="int" name="NWRITE">     0</i>
  <i type="logical" name="LWAVE"> F  </i>
  <i type="logical" name="LCHARG"> F  </i>
  <v type="int" name="KPOINT_BSE">    -1     0     0     0</v>
  <i type="int" name="NELM">   200</i>
  <i type="string" name="GGA">PE</i>
 </incar>
 <structure name="primitive_cell" >
  <crystal>
   <varray name="basis" >
    <v>      29.15653671      -0.06521430       0.00000000 </v>
    <v>     -14.63461730      25.19174831       0.00000000 </v>
    <v>       0.00000000       0.00000000      20.00000000 </v>
   </varray>
   <i name="volume">  14670.99496031 </i>
   <varray name="rec_basis" >
    <v>       0.03434225       0.01995041       0.00000000 </v>
    <v>       0.00008890       0.03974718       0.00000000 </v>
    <v>       0.00000000       0.00000000       0.05000000 </v>
   </varray>
  </crystal>
  <varray name="positions" >
   <v>       0.38879766      -0.30947479       0.49454474 </v>
   <v>       0.35730642      -0.36252264       0.49469514 </v>
   <v>       0.36165723      -0.28300027       0.49441253 </v>
   <v>       0.39173172      -0.22905118       0.49451645 </v>
   <v>       0.38125108      -0.39226099       0.49486350 </v>
   <v>       0.30869076      -0.30473732       0.49393458 </v>
   <v>       0.30346968      -0.38994910       0.49438896 </v>
   <v>       0.43133709      -0.21362927       0.48835243 </v>
   <v>       0.45800746      -0.33925313      -0.47194855 </v>
   <v>       0.28201098      -0.35860768       0.49407410 </v>
   <v>       0.43842729      -0.36922187       0.48836581 </v>
   <v>       0.45255364      -0.34769718       0.44052128 </v>
   <v>       0.35708944      -0.43196153       0.48883859 </v>
   <v>       0.36931015      -0.19465629       0.48630618 </v>
   <v>       0.34845662      -0.20228923       0.43795152 </v>
   <v>       0.33889431      -0.20479878      -0.47477573 </v>
   <v>       0.22815012      -0.38257712       0.49358515 </v>
   <v>       0.45334741      -0.41166338       0.49341906 </v>
   <v>       0.21299275      -0.35827590       0.48749966 </v>
   <v>       0.42638869      -0.43290565      -0.40454891 </v>
   <v>       0.41201961      -0.13700293       0.49131821 </v>
   <v>       0.43235228      -0.14247596      -0.40617449 </v>
   <v>       0.20347403      -0.45963343      -0.47402642 </v>
   <v>       0.44424301      -0.44107456      -0.44756317 </v>
   <v>       0.19332076      -0.43973688       0.48665603 </v>
   <v>       0.20035620      -0.45370602       0.43853354 </v>
   <v>       0.48468639      -0.39944754       0.39332157 </v>
   <v>       0.44097858      -0.11643472      -0.44937072 </v>
   <v>       0.47712805      -0.42228146       0.43949297 </v>
   <v>       0.42329275      -0.10256026       0.43713676 </v>
   <v>       0.40087201      -0.11801447       0.39069456 </v>
   <v>       0.45856014      -0.47988726      -0.44319578 </v>
   <v>       0.13598392      -0.45426679       0.49209060 </v>
   <v>       0.47991301      -0.06302029      -0.44492941 </v>
   <v>       0.14198040      -0.42955667      -0.40480938 </v>
   <v>       0.49188626      -0.46099383       0.44314837 </v>
   <v>       0.46216652      -0.04881136       0.44085368 </v>
   <v>      -0.49910292      -0.04771059      -0.39770375 </v>
   <v>       0.11588487      -0.44613865      -0.44813931 </v>
   <v>       0.45231069       0.49872966      -0.39620582 </v>
   <v>       0.48222272      -0.49085068      -0.49749573 </v>
   <v>       0.49147896      -0.02833631      -0.49944240 </v>
   <v>       0.11660873      -0.48314786       0.39091478 </v>
   <v>       0.10149623      -0.47638605       0.43770016 </v>
   <v>      -0.46515631      -0.43830645       0.35012443 </v>
   <v>      -0.48227097      -0.47213804       0.38493833 </v>
   <v>       0.47407622      -0.01178684       0.38236371 </v>
   <v>       0.44070317      -0.02874264       0.34690704 </v>
   <v>       0.48728193       0.49315769       0.35680004 </v>
   <v>      -0.49095286      -0.00738994       0.35508970 </v>
   <v>       0.06286343      -0.45979266      -0.44346907 </v>
   <v>       0.49795766       0.46832402      -0.49424987 </v>
   <v>      -0.46772855       0.02858429      -0.49600050 </v>
   <v>      -0.42278770       0.02198065      -0.41419540 </v>
   <v>       0.04812630      -0.49045915       0.44164748 </v>
   <v>      -0.40732841      -0.44807142       0.43351498 </v>
   <v>       0.04786068      -0.45433725      -0.39594704 </v>
   <v>      -0.43985097      -0.48421251       0.40997599 </v>
   <v>       0.44510209       0.42246509      -0.41361083 </v>
   <v>       0.02814141      -0.48181816      -0.49820149 </v>
   <v>      -0.42662615       0.04896704      -0.44849902 </v>
   <v>       0.47628791       0.42664166      -0.44752001 </v>
   <v>       0.48599367       0.04294023       0.40681098 </v>
   <v>      -0.46311446       0.47143755       0.46074363 </v>
   <v>       0.44963992       0.03922567       0.42934787 </v>
   <v>      -0.47034537       0.06439817       0.45848430 </v>
   <v>       0.02730749       0.46896875       0.34690036 </v>
   <v>       0.01099713       0.48548099       0.38297549 </v>
   <v>      -0.42216095      -0.49456795       0.36829055 </v>
   <v>       0.00747782      -0.48311652       0.35654712 </v>
   <v>       0.49695753       0.07101401       0.36492341 </v>
   <v>      -0.39041453       0.10328070      -0.44421984 </v>
   <v>      -0.02838909      -0.49709249      -0.49452607 </v>
   <v>      -0.02056652      -0.44579432      -0.41171995 </v>
   <v>       0.49390364       0.39028260      -0.44351111 </v>
   <v>      -0.44635311       0.43433070       0.46483990 </v>
   <v>      -0.43340843       0.11862344       0.46291801 </v>
   <v>      -0.35930453       0.11820617      -0.40617868 </v>
   <v>      -0.04130146       0.40938073       0.42868985 </v>
   <v>      -0.04409029       0.44280242       0.40702118 </v>
   <v>      -0.04796968      -0.47621895      -0.44636083 </v>
   <v>      -0.39352078       0.13902789      -0.48816421 </v>
   <v>       0.47698652       0.35871500      -0.40605573 </v>
   <v>      -0.46681762       0.39382070      -0.48701643 </v>
   <v>      -0.41632595       0.43717768       0.42964257 </v>
   <v>      -0.06467973       0.46508756       0.45950222 </v>
   <v>      -0.43589630       0.14580226       0.42735939 </v>
   <v>      -0.07221187       0.42649503       0.36506923 </v>
   <v>      -0.10201379      -0.49369419      -0.44181982 </v>
   <v>      -0.35460644       0.19790140      -0.48307490 </v>
   <v>      -0.11861316       0.44841016       0.46424008 </v>
   <v>      -0.44734843       0.35476001      -0.48229753 </v>
   <v>      -0.36856688       0.42169088      -0.47999662 </v>
   <v>      -0.33258817       0.20683287      -0.43545915 </v>
   <v>      -0.32437861       0.21095481       0.47708584 </v>
   <v>      -0.11633718      -0.47744255      -0.40326237 </v>
   <v>      -0.42162587       0.20912719      -0.48219299 </v>
   <v>      -0.46066299       0.33255279      -0.43477873 </v>
   <v>      -0.46476664       0.32468678       0.47766910 </v>
   <v>      -0.13825847       0.46794348      -0.48613299 </v>
   <v>      -0.38989402       0.38196300      -0.48830015 </v>
   <v>      -0.14619520       0.41913540       0.42840892 </v>
   <v>      -0.38176251       0.22800315      -0.48900639 </v>
   <v>      -0.36145113       0.35668116      -0.48869227 </v>
   <v>      -0.19692414       0.44829865      -0.48068040 </v>
   <v>      -0.35641583       0.28196105      -0.48899514 </v>
   <v>      -0.20921917       0.36954376      -0.47971317 </v>
   <v>      -0.20549004       0.46121401      -0.43271888 </v>
   <v>      -0.20971703       0.46593925       0.47992025 </v>
   <v>      -0.30789444       0.38883547      -0.48812045 </v>
   <v>      -0.22755203       0.39082789      -0.48735018 </v>
   <v>      -0.30316603       0.30863992      -0.48832089 </v>
   <v>      -0.38832373       0.30337859      -0.48927521 </v>
   <v>      -0.28149472       0.36218887      -0.48806967 </v>
  </varray>
 </structure>
 <varray name="primitive_index" >
  <v type="int" >        1 </v>
  <v type="int" >       62 </v>
  <v type="int" >       61 </v>
  <v type="int" >        6 </v>
  <v type="int" >        4 </v>
  <v type="int" >        3 </v>
  <v type="int" >        2 </v>
  <v type="int" >       15 </v>
  <v type="int" >       59 </v>
  <v type="int" >       63 </v>
  <v type="int" >      114 </v>
  <v type="int" >       60 </v>
  <v type="int" >       13 </v>
  <v type="int" >       98 </v>
  <v type="int" >       48 </v>
  <v type="int" >       47 </v>
  <v type="int" >        5 </v>
  <v type="int" >      107 </v>
  <v type="int" >       14 </v>
  <v type="int" >       57 </v>
  <v type="int" >       91 </v>
  <v type="int" >       45 </v>
  <v type="int" >       53 </v>
  <v type="int" >      108 </v>
  <v type="int" >      106 </v>
  <v type="int" >       54 </v>
  <v type="int" >       35 </v>
  <v type="int" >       92 </v>
  <v type="int" >       84 </v>
  <v type="int" >       68 </v>
  <v type="int" >       19 </v>
  <v type="int" >      109 </v>
  <v type="int" >       99 </v>
  <v type="int" >       93 </v>
  <v type="int" >       51 </v>
  <v type="int" >       83 </v>
  <v type="int" >       67 </v>
  <v type="int" >       46 </v>
  <v type="int" >      100 </v>
  <v type="int" >       58 </v>
  <v type="int" >      110 </v>
  <v type="int" >       94 </v>
  <v type="int" >       27 </v>
  <v type="int" >       76 </v>
  <v type="int" >       39 </v>
  <v type="int" >       89 </v>
  <v type="int" >       73 </v>
  <v type="int" >       23 </v>
  <v type="int" >       40 </v>
  <v type="int" >       24 </v>
  <v type="int" >      101 </v>
  <v type="int" >      111 </v>
  <v type="int" >       95 </v>
  <v type="int" >       43 </v>
  <v type="int" >       75 </v>
  <v type="int" >       37 </v>
  <v type="int" >       52 </v>
  <v type="int" >       88 </v>
  <v type="int" >       55 </v>
  <v type="int" >      102 </v>
  <v type="int" >       96 </v>
  <v type="int" >      112 </v>
  <v type="int" >       72 </v>
  <v type="int" >       87 </v>
  <v type="int" >       21 </v>
  <v type="int" >       71 </v>
  <v type="int" >       31 </v>
  <v type="int" >       81 </v>
  <v type="int" >       38 </v>
  <v type="int" >       32 </v>
  <v type="int" >       22 </v>
  <v type="int" >       97 </v>
  <v type="int" >      103 </v>
  <v type="int" >       49 </v>
  <v type="int" >      113 </v>
  <v type="int" >       86 </v>
  <v type="int" >       70 </v>
  <v type="int" >       44 </v>
  <v type="int" >       29 </v>
  <v type="int" >       80 </v>
  <v type="int" >      104 </v>
  <v type="int" >       69 </v>
  <v type="int" >       56 </v>
  <v type="int" >       85 </v>
  <v type="int" >       36 </v>
  <v type="int" >       79 </v>
  <v type="int" >       20 </v>
  <v type="int" >       30 </v>
  <v type="int" >      105 </v>
  <v type="int" >       74 </v>
  <v type="int" >       78 </v>
  <v type="int" >       90 </v>
  <v type="int" >       16 </v>
  <v type="int" >       25 </v>
  <v type="int" >       26 </v>
  <v type="int" >       50 </v>
  <v type="int" >       18 </v>
  <v type="int" >       41 </v>
  <v type="int" >       42 </v>
  <v type="int" >       77 </v>
  <v type="int" >       10 </v>
  <v type="int" >       28 </v>
  <v type="int" >       12 </v>
  <v type="int" >       65 </v>
  <v type="int" >       82 </v>
  <v type="int" >       64 </v>
  <v type="int" >       17 </v>
  <v type="int" >       33 </v>
  <v type="int" >       34 </v>
  <v type="int" >        8 </v>
  <v type="int" >       11 </v>
  <v type="int" >        9 </v>
  <v type="int" >        7 </v>
  <v type="int" >       66 </v>
 </varray>
 <kpoints>
  <generation param="listgenerated">
   <i name="divisions" type="int">      20 </i>
   <v>       0.00000000       0.00000000       0.00000000 </v>
   <v>       0.50000000      -0.50000000       0.00000000 </v>
   <v>       0.66786998      -0.33265209       0.00000000 </v>
   <v>       0.50000000       0.00000000       0.00000000 </v>
   <v>       0.33213002       0.33265209       0.00000000 </v>
   <v>       0.00000000       0.50000000       0.00000000 </v>
   <v>       0.00000000       0.00000000       0.00000000 </v>
  </generation>
  <varray name="kpointlist" >
   <v>       0.00000000       0.00000000       0.00000000 </v>
   <v>       0.02631579      -0.02631579       0.00000000 </v>
   <v>       0.05263158      -0.05263158       0.00000000 </v>
   <v>       0.07894737      -0.07894737       0.00000000 </v>
   <v>       0.10526316      -0.10526316       0.00000000 </v>
   <v>       0.13157895      -0.13157895       0.00000000 </v>
   <v>       0.15789474      -0.15789474       0.00000000 </v>
   <v>       0.18421053      -0.18421053       0.00000000 </v>
   <v>       0.21052632      -0.21052632       0.00000000 </v>
   <v>       0.23684211      -0.23684211       0.00000000 </v>
   <v>       0.26315789      -0.26315789       0.00000000 </v>
   <v>       0.28947368      -0.28947368       0.00000000 </v>
   <v>       0.31578947      -0.31578947       0.00000000 </v>
   <v>       0.34210526      -0.34210526       0.00000000 </v>
   <v>       0.36842105      -0.36842105       0.00000000 </v>
   <v>       0.39473684      -0.39473684       0.00000000 </v>
   <v>       0.42105263      -0.42105263       0.00000000 </v>
   <v>       0.44736842      -0.44736842       0.00000000 </v>
   <v>       0.47368421      -0.47368421       0.00000000 </v>
   <v>       0.50000000      -0.50000000       0.00000000 </v>
   <v>       0.50000000      -0.50000000       0.00000000 </v>
   <v>       0.50883526      -0.49119222       0.00000000 </v>
   <v>       0.51767052      -0.48238443       0.00000000 </v>
   <v>       0.52650579      -0.47357665       0.00000000 </v>
   <v>       0.53534105      -0.46476886       0.00000000 </v>
   <v>       0.54417631      -0.45596108       0.00000000 </v>
   <v>       0.55301157      -0.44715329       0.00000000 </v>
   <v>       0.56184683      -0.43834551       0.00000000 </v>
   <v>       0.57068210      -0.42953772       0.00000000 </v>
   <v>       0.57951736      -0.42072994       0.00000000 </v>
   <v>       0.58835262      -0.41192215       0.00000000 </v>
   <v>       0.59718788      -0.40311437       0.00000000 </v>
   <v>       0.60602315      -0.39430658       0.00000000 </v>
   <v>       0.61485841      -0.38549880       0.00000000 </v>
   <v>       0.62369367      -0.37669101       0.00000000 </v>
   <v>       0.63252893      -0.36788323       0.00000000 </v>
   <v>       0.64136419      -0.35907544       0.00000000 </v>
   <v>       0.65019946      -0.35026766       0.00000000 </v>
   <v>       0.65903472      -0.34145987       0.00000000 </v>
   <v>       0.66786998      -0.33265209       0.00000000 </v>
   <v>       0.66786998      -0.33265209       0.00000000 </v>
   <v>       0.65903472      -0.31514408       0.00000000 </v>
   <v>       0.65019946      -0.29763608       0.00000000 </v>
   <v>       0.64136419      -0.28012807       0.00000000 </v>
   <v>       0.63252893      -0.26262007       0.00000000 </v>
   <v>       0.62369367      -0.24511206       0.00000000 </v>
   <v>       0.61485841      -0.22760406       0.00000000 </v>
   <v>       0.60602315      -0.21009605       0.00000000 </v>
   <v>       0.59718788      -0.19258805       0.00000000 </v>
   <v>       0.58835262      -0.17508004       0.00000000 </v>
   <v>       0.57951736      -0.15757204       0.00000000 </v>
   <v>       0.57068210      -0.14006404       0.00000000 </v>
   <v>       0.56184683      -0.12255603       0.00000000 </v>
   <v>       0.55301157      -0.10504803       0.00000000 </v>
   <v>       0.54417631      -0.08754002       0.00000000 </v>
   <v>       0.53534105      -0.07003202       0.00000000 </v>
   <v>       0.52650579      -0.05252401       0.00000000 </v>
   <v>       0.51767052      -0.03501601       0.00000000 </v>
   <v>       0.50883526      -0.01750800       0.00000000 </v>
   <v>       0.50000000       0.00000000       0.00000000 </v>
   <v>       0.50000000       0.00000000       0.00000000 </v>
   <v>       0.49116474       0.01750800       0.00000000 </v>
   <v>       0.48232948       0.03501601       0.00000000 </v>
   <v>       0.47349421       0.05252401       0.00000000 </v>
   <v>       0.46465895       0.07003202       0.00000000 </v>
   <v>       0.45582369       0.08754002       0.00000000 </v>
   <v>       0.44698843       0.10504803       0.00000000 </v>
   <v>       0.43815317       0.12255603       0.00000000 </v>
   <v>       0.42931790       0.14006404       0.00000000 </v>
   <v>       0.42048264       0.15757204       0.00000000 </v>
   <v>       0.41164738       0.17508004       0.00000000 </v>
   <v>       0.40281212       0.19258805       0.00000000 </v>
   <v>       0.39397685       0.21009605       0.00000000 </v>
   <v>       0.38514159       0.22760406       0.00000000 </v>
   <v>       0.37630633       0.24511206       0.00000000 </v>
   <v>       0.36747107       0.26262007       0.00000000 </v>
   <v>       0.35863581       0.28012807       0.00000000 </v>
   <v>       0.34980054       0.29763608       0.00000000 </v>
   <v>       0.34096528       0.31514408       0.00000000 </v>
   <v>       0.33213002       0.33265209       0.00000000 </v>
   <v>       0.33213002       0.33265209       0.00000000 </v>
   <v>       0.31464949       0.34145987       0.00000000 </v>
   <v>       0.29716897       0.35026766       0.00000000 </v>
   <v>       0.27968844       0.35907544       0.00000000 </v>
   <v>       0.26220791       0.36788323       0.00000000 </v>
   <v>       0.24472738       0.37669101       0.00000000 </v>
   <v>       0.22724686       0.38549880       0.00000000 </v>
   <v>       0.20976633       0.39430658       0.00000000 </v>
   <v>       0.19228580       0.40311437       0.00000000 </v>
   <v>       0.17480527       0.41192215       0.00000000 </v>
   <v>       0.15732475       0.42072994       0.00000000 </v>
   <v>       0.13984422       0.42953772       0.00000000 </v>
   <v>       0.12236369       0.43834551       0.00000000 </v>
   <v>       0.10488316       0.44715329       0.00000000 </v>
   <v>       0.08740264       0.45596108       0.00000000 </v>
   <v>       0.06992211       0.46476886       0.00000000 </v>
   <v>       0.05244158       0.47357665       0.00000000 </v>
   <v>       0.03496105       0.48238443       0.00000000 </v>
   <v>       0.01748053       0.49119222       0.00000000 </v>
   <v>       0.00000000       0.50000000       0.00000000 </v>
   <v>       0.00000000       0.50000000       0.00000000 </v>
   <v>       0.00000000       0.47368421       0.00000000 </v>
   <v>       0.00000000       0.44736842       0.00000000 </v>
   <v>       0.00000000       0.42105263       0.00000000 </v>
   <v>       0.00000000       0.39473684       0.00000000 </v>
   <v>       0.00000000       0.36842105       0.00000000 </v>
   <v>       0.00000000       0.34210526       0.00000000 </v>
   <v>       0.00000000       0.31578947       0.00000000 </v>
   <v>       0.00000000       0.28947368       0.00000000 </v>
   <v>       0.00000000       0.26315789       0.00000000 </v>
   <v>       0.00000000       0.23684211       0.00000000 </v>
   <v>       0.00000000       0.21052632       0.00000000 </v>
   <v>       0.00000000       0.18421053       0.00000000 </v>
   <v>       0.00000000       0.15789474       0.00000000 </v>
   <v>       0.00000000       0.13157895       0.00000000 </v>
   <v>       0.00000000       0.10526316       0.00000000 </v>
   <v>       0.00000000       0.07894737       0.00000000 </v>
   <v>       0.00000000       0.05263158       0.00000000 </v>
   <v>       0.00000000       0.02631579       0.00000000 </v>
   <v>       0.00000000       0.00000000       0.00000000 </v>
  </varray>
  <varray name="weights" >
   <v>       0.00833333 </v>
   <v>       0.00833333 </v>
   <v>       0.00833333 </v>
   <v>       0.00833333 </v>
   <v>       0.00833333 </v>
   <v>       0.00833333 </v>
   <v>       0.00833333 </v>
   <v>       0.00833333 </v>
   <v>       0.00833333 </v>
   <v>       0.00833333 </v>
   <v>       0.00833333 </v>
   <v>       0.00833333 </v>
   <v>       0.00833333 </v>
   <v>       0.00833333 </v>
   <v>       0.00833333 </v>
   <v>       0.00833333 </v>
   <v>       0.00833333 </v>
   <v>       0.00833333 </v>
   <v>       0.00833333 </v>
   <v>       0.00833333 </v>
   <v>       0.00833333 </v>
   <v>       0.00833333 </v>
   <v>       0.00833333 </v>
   <v>       0.00833333 </v>
   <v>       0.00833333 </v>
   <v>       0.00833333 </v>
   <v>       0.00833333 </v>
   <v>       0.00833333 </v>
   <v>       0.00833333 </v>
   <v>       0.00833333 </v>
   <v>       0.00833333 </v>
   <v>       0.00833333 </v>
   <v>       0.00833333 </v>
   <v>       0.00833333 </v>
   <v>       0.00833333 </v>
   <v>       0.00833333 </v>
   <v>       0.00833333 </v>
   <v>       0.00833333 </v>
   <v>       0.00833333 </v>
   <v>       0.00833333 </v>
   <v>       0.00833333 </v>
   <v>       0.00833333 </v>
   <v>       0.00833333 </v>
   <v>       0.00833333 </v>
   <v>       0.00833333 </v>
   <v>       0.00833333 </v>
   <v>       0.00833333 </v>
   <v>       0.00833333 </v>
   <v>       0.00833333 </v>
   <v>       0.00833333 </v>
   <v>       0.00833333 </v>
   <v>       0.00833333 </v>
   <v>       0.00833333 </v>
   <v>       0.00833333 </v>
   <v>       0.00833333 </v>
   <v>       0.00833333 </v>
   <v>       0.00833333 </v>
   <v>       0.00833333 </v>
   <v>       0.00833333 </v>
   <v>       0.00833333 </v>
   <v>       0.00833333 </v>
   <v>       0.00833333 </v>
   <v>       0.00833333 </v>
   <v>       0.00833333 </v>
   <v>       0.00833333 </v>
   <v>       0.00833333 </v>
   <v>       0.00833333 </v>
   <v>       0.00833333 </v>
   <v>       0.00833333 </v>
   <v>       0.00833333 </v>
   <v>       0.00833333 </v>
   <v>       0.00833333 </v>
   <v>       0.00833333 </v>
   <v>       0.00833333 </v>
   <v>       0.00833333 </v>
   <v>       0.00833333 </v>
   <v>       0.00833333 </v>
   <v>       0.00833333 </v>
   <v>       0.00833333 </v>
   <v>       0.00833333 </v>
   <v>       0.00833333 </v>
   <v>       0.00833333 </v>
   <v>       0.00833333 </v>
   <v>       0.00833333 </v>
   <v>       0.00833333 </v>
   <v>       0.00833333 </v>
   <v>       0.00833333 </v>
   <v>       0.00833333 </v>
   <v>       0.00833333 </v>
   <v>       0.00833333 </v>
   <v>       0.00833333 </v>
   <v>       0.00833333 </v>
   <v>       0.00833333 </v>
   <v>       0.00833333 </v>
   <v>       0.00833333 </v>
   <v>       0.00833333 </v>
   <v>       0.00833333 </v>
   <v>       0.00833333 </v>
   <v>       0.00833333 </v>
   <v>       0.00833333 </v>
   <v>       0.00833333 </v>
   <v>       0.00833333 </v>
   <v>       0.00833333 </v>
   <v>       0.00833333 </v>
   <v>       0.00833333 </v>
   <v>       0.00833333 </v>
   <v>       0.00833333 </v>
   <v>       0.00833333 </v>
   <v>       0.00833333 </v>
   <v>       0.00833333 </v>
   <v>       0.00833333 </v>
   <v>       0.00833333 </v>
   <v>       0.00833333 </v>
   <v>       0.00833333 </v>
   <v>       0.00833333 </v>
   <v>       0.00833333 </v>
   <v>       0.00833333 </v>
   <v>       0.00833333 </v>
   <v>       0.00833333 </v>
   <v>       0.00833333 </v>
  </varray>
 </kpoints>
 <parameters>
  <separator name="general" >
   <i type="string" name="SYSTEM">Simulation for cell shape cell volume r</i>
   <i type="logical" name="LCOMPAT"> F  </i>
  </separator>
  <separator name="electronic" >
   <i type="string" name="PREC">high</i>
   <i name="ENMAX">    500.00000000</i>
   <i name="ENAUG">    644.87300000</i>
   <i name="EDIFF">      0.00001000</i>
   <i type="int" name="IALGO">    38</i>
   <i type="int" name="IWAVPR">    10</i>
   <i type="int" name="NBANDS">   224</i>
   <i name="NELECT">    324.00000000</i>
   <i type="int" name="TURBO">     0</i>
   <i type="int" name="IRESTART">     0</i>
   <i type="int" name="NREBOOT">     0</i>
   <i type="int" name="NMIN">     0</i>
   <i name="EREF">      0.00000000</i>
   <separator name="electronic smearing" >
    <i type="int" name="ISMEAR">     0</i>
    <i name="SIGMA">      0.01000000</i>
    <i name="KSPACING">      0.50000000</i>
    <i type="logical" name="KGAMMA"> T  </i>
   </separator>
   <separator name="electronic projectors" >
    <i type="logical" name="LREAL"> T  </i>
    <v name="ROPT">     -0.00040000     -0.00040000     -0.00040000</v>
    <i type="int" name="LMAXPAW">  -100</i>
    <i type="int" name="LMAXMIX">     2</i>
    <i type="logical" name="NLSPLINE"> F  </i>
   </separator>
   <separator name="electronic startup" >
    <i type="int" name="ISTART">     1</i>
    <i type="int" name="ICHARG">    11</i>
    <i type="int" name="INIWAV">     1</i>
   </separator>
   <separator name="electronic spin" >
    <i type="int" name="ISPIN">     1</i>
    <i type="logical" name="LNONCOLLINEAR"> F  </i>
    <v name="MAGMOM">      1.00000000      1.00000000      1.00000000      1.00000000      1.00000000      1.00000000      1.00000000      1.00000000      1.00000000      1.00000000      1.00000000      1.00000000      1.00000000      1.00000000      1.00000000      1.00000000      1.00000000      1.00000000      1.00000000      1.00000000
      1.00000000      1.00000000      1.00000000      1.00000000      1.00000000      1.00000000      1.00000000      1.00000000      1.00000000      1.00000000      1.00000000      1.00000000      1.00000000      1.00000000      1.00000000      1.00000000      1.00000000      1.00000000      1.00000000      1.00000000
      1.00000000      1.00000000      1.00000000      1.00000000      1.00000000      1.00000000      1.00000000      1.00000000      1.00000000      1.00000000      1.00000000      1.00000000      1.00000000      1.00000000      1.00000000      1.00000000      1.00000000      1.00000000      1.00000000      1.00000000
      1.00000000      1.00000000      1.00000000      1.00000000      1.00000000      1.00000000      1.00000000      1.00000000      1.00000000      1.00000000      1.00000000      1.00000000      1.00000000      1.00000000      1.00000000      1.00000000      1.00000000      1.00000000      1.00000000      1.00000000
      1.00000000      1.00000000      1.00000000      1.00000000      1.00000000      1.00000000      1.00000000      1.00000000      1.00000000      1.00000000      1.00000000      1.00000000      1.00000000      1.00000000      1.00000000      1.00000000      1.00000000      1.00000000      1.00000000      1.00000000
      1.00000000      1.00000000      1.00000000      1.00000000      1.00000000      1.00000000      1.00000000      1.00000000      1.00000000      1.00000000      1.00000000      1.00000000      1.00000000      1.00000000</v>
    <i name="NUPDOWN">     -1.00000000</i>
    <i type="logical" name="LSORBIT"> F  </i>
    <v name="SAXIS">      0.00000000      0.00000000      1.00000000</v>
    <i type="logical" name="LSPIRAL"> F  </i>
    <v name="QSPIRAL">      0.00000000      0.00000000      0.00000000</v>
    <i type="logical" name="LZEROZ"> F  </i>
   </separator>
   <separator name="electronic exchange-correlation" >
    <i type="logical" name="LASPH"> F  </i>
    <i type="logical" name="LMETAGGA"> F  </i>
   </separator>
   <separator name="electronic convergence" >
    <i type="int" name="NELM">   200</i>
    <i type="int" name="NELMDL">     0</i>
    <i type="int" name="NELMIN">     2</i>
    <i name="ENINI">    500.00000000</i>
    <separator name="electronic convergence detail" >
     <i type="logical" name="LDIAG"> T  </i>
     <i type="logical" name="LSUBROT"> F  </i>
     <i name="WEIMIN">      0.00000000</i>
     <i name="EBREAK">      0.00000001</i>
     <i name="DEPER">      0.30000000</i>
     <i type="int" name="NRMM">     4</i>
     <i name="TIME">      0.40000000</i>
    </separator>
   </separator>
   <separator name="electronic mixer" >
    <i name="AMIX">      0.40000000</i>
    <i name="BMIX">      1.00000000</i>
    <i name="AMIN">      0.10000000</i>
    <i name="AMIX_MAG">      1.60000000</i>
    <i name="BMIX_MAG">      1.00000000</i>
    <separator name="electronic mixer details" >
     <i type="int" name="IMIX">     4</i>
     <i type="logical" name="MIXFIRST"> F  </i>
     <i type="int" name="MAXMIX">   -45</i>
     <i name="WC">    100.00000000</i>
     <i type="int" name="INIMIX">     1</i>
     <i type="int" name="MIXPRE">     1</i>
     <i type="int" name="MREMOVE">     5</i>
    </separator>
   </separator>
   <separator name="electronic dipolcorrection" >
    <i type="logical" name="LDIPOL"> F  </i>
    <i type="logical" name="LMONO"> F  </i>
    <i type="int" name="IDIPOL">     0</i>
    <i name="EPSILON">      1.00000000</i>
    <v name="DIPOL">   -100.00000000   -100.00000000   -100.00000000</v>
    <i name="EFIELD">      0.00000000</i>
   </separator>
  </separator>
  <separator name="grids" >
   <i type="int" name="NGX">   216</i>
   <i type="int" name="NGY">   216</i>
   <i type="int" name="NGZ">   150</i>
   <i type="int" name="NGXF">   324</i>
   <i type="int" name="NGYF">   324</i>
   <i type="int" name="NGZF">   224</i>
   <i type="logical" name="ADDGRID"> F  </i>
  </separator>
  <separator name="ionic" >
   <i type="int" name="NSW">     0</i>
   <i type="int" name="IBRION">    -1</i>
   <i type="int" name="MDALGO">     0</i>
   <i type="int" name="ISIF">     2</i>
   <i name="PSTRESS">      0.00000000</i>
   <i name="EDIFFG">     -0.01000000</i>
   <i type="int" name="NFREE">     0</i>
   <i name="POTIM">      0.30000000</i>
   <i name="SMASS">     -3.00000000</i>
   <i name="SCALEE">      1.00000000</i>
  </separator>
  <separator name="ionic md" >
   <i name="TEBEG">      0.00010000</i>
   <i name="TEEND">      0.00010000</i>
   <i type="int" name="NBLOCK">     1</i>
   <i type="int" name="KBLOCK">     1</i>
   <i type="int" name="NPACO">   256</i>
   <i name="APACO">     16.00000000</i>
  </separator>
  <separator name="symmetry" >
   <i type="int" name="ISYM">     2</i>
   <i name="SYMPREC">      0.00001000</i>
  </separator>
  <separator name="dos" >
   <i type="int" name="LORBIT">     0</i>
   <v name="RWIGS">     -1.00000000     -1.00000000     -1.00000000</v>
   <i type="int" name="NEDOS">   301</i>
   <i name="EMIN">     10.00000000</i>
   <i name="EMAX">    -10.00000000</i>
   <i name="EFERMI">      0.00000000</i>
  </separator>
  <separator name="writing" >
   <i type="int" name="NWRITE">     0</i>
   <i type="logical" name="LWAVE"> F  </i>
   <i type="logical" name="LDOWNSAMPLE"> F  </i>
   <i type="logical" name="LCHARG"> F  </i>
   <i type="logical" name="LPARD"> F  </i>
   <i type="logical" name="LVTOT"> F  </i>
   <i type="logical" name="LVHAR"> F  </i>
   <i type="logical" name="LELF"> F  </i>
   <i type="logical" name="LOPTICS"> F  </i>
   <v name="STM">      0.00000000      0.00000000      0.00000000      0.00000000      0.00000000      0.00000000      0.00000000</v>
  </separator>
  <separator name="performance" >
   <i type="int" name="NPAR">    16</i>
   <i type="int" name="NSIM">     4</i>
   <i type="int" name="NBLK">    -1</i>
   <i type="logical" name="LPLANE"> T  </i>
   <i type="logical" name="LSCALAPACK"> T  </i>
   <i type="logical" name="LSCAAWARE"> F  </i>
   <i type="logical" name="LSCALU"> F  </i>
   <i type="logical" name="LASYNC"> F  </i>
   <i type="logical" name="LORBITALREAL"> F  </i>
  </separator>
  <separator name="miscellaneous" >
   <i type="int" name="IDIOT">     3</i>
   <i type="int" name="ISPECIAL">     0</i>
   <i type="logical" name="LMUSIC"> F  </i>
   <v name="POMASS">     14.00100000      1.00000000     12.01100000</v>
   <v name="DARWINR">      0.00000000      0.00000000      0.00000000</v>
   <v name="DARWINV">      1.00000000      1.00000000      1.00000000</v>
   <i type="logical" name="LCORR"> T  </i>
  </separator>
  <i type="logical" name="GGA_COMPAT"> T  </i>
  <i type="logical" name="LBERRY"> F  </i>
  <i type="int" name="ICORELEVEL">     0</i>
  <i type="logical" name="LDAU"> F  </i>
  <i type="int" name="I_CONSTRAINED_M">     0</i>
  <separator name="electronic exchange-correlation" >
   <i type="string" name="GGA">PE</i>
   <i type="int" name="VOSKOWN">     0</i>
   <i type="logical" name="LHFCALC"> F  </i>
   <i type="string" name="PRECFOCK"></i>
   <i type="logical" name="LSYMGRAD"> F  </i>
   <i type="logical" name="LHFONE"> F  </i>
   <i type="logical" name="LRHFCALC"> F  </i>
   <i type="logical" name="LTHOMAS"> F  </i>
   <i type="logical" name="LMODELHF"> F  </i>
   <i name="ENCUT4O">     -1.00000000</i>
   <i type="int" name="EXXOEP">     0</i>
   <i type="int" name="FOURORBIT">     0</i>
   <i name="AEXX">      0.00000000</i>
   <i name="HFALPHA">      0.00000000</i>
   <i name="MCALPHA">      0.00000000</i>
   <i name="ALDAX">      1.00000000</i>
   <i name="AGGAX">      1.00000000</i>
   <i name="ALDAC">      1.00000000</i>
   <i name="AGGAC">      1.00000000</i>
   <i type="int" name="NKREDX">     1</i>
   <i type="int" name="NKREDY">     1</i>
   <i type="int" name="NKREDZ">     1</i>
   <i type="logical" name="SHIFTRED"> F  </i>
   <i type="logical" name="ODDONLY"> F  </i>
   <i type="logical" name="EVENONLY"> F  </i>
   <i type="int" name="LMAXFOCK">     0</i>
   <i type="int" name="NMAXFOCKAE">     0</i>
   <i type="logical" name="LFOCKAEDFT"> F  </i>
   <i name="HFSCREEN">      0.00000000</i>
   <i name="HFSCREENC">      0.00000000</i>
   <i type="int" name="NBANDSGWLOW">     0</i>
  </separator>
  <separator name="vdW DFT" >
   <i type="logical" name="LUSE_VDW"> F  </i>
   <i name="Zab_VDW">     -0.84910000</i>
   <i name="PARAM1">      0.12340000</i>
   <i name="PARAM2">      1.00000000</i>
   <i name="PARAM3">      0.00000000</i>
  </separator>
  <separator name="model GW" >
   <i type="int" name="MODEL_GW">     0</i>
   <i name="MODEL_EPS0">     77.21576295</i>
   <i name="MODEL_ALPHA">      1.00000000</i>
  </separator>
  <separator name="linear response parameters" >
   <i type="logical" name="LEPSILON"> F  </i>
   <i type="logical" name="LRPA"> F  </i>
   <i type="logical" name="LNABLA"> F  </i>
   <i type="logical" name="LVEL"> F  </i>
   <i type="int" name="KINTER">     0</i>
   <i name="CSHIFT">      0.10000000</i>
   <i name="OMEGAMAX">     -1.00000000</i>
   <i name="DEG_THRESHOLD">      0.00200000</i>
   <i name="RTIME">     -0.10000000</i>
   <i name="WPLASMAI">      0.00000000</i>
   <v name="DFIELD">      0.00000000      0.00000000      0.00000000</v>
   <v name="WPLASMA">      0.00000000      0.00000000      0.00000000      0.00000000      0.00000000      0.00000000      0.00000000      0.00000000      0.00000000</v>
  </separator>
  <separator name="orbital magnetization" >
   <i type="logical" name="NUCIND"> F  </i>
   <v name="MAGPOS">      0.00000000      0.00000000      0.00000000</v>
   <i type="logical" name="LNICSALL"> T  </i>
   <i type="logical" name="ORBITALMAG"> F  </i>
   <i type="logical" name="LMAGBLOCH"> F  </i>
   <i type="logical" name="LCHIMAG"> F  </i>
   <i type="logical" name="LGAUGE"> T  </i>
   <i type="int" name="MAGATOM">     0</i>
   <v name="MAGDIPOL">      0.00000000      0.00000000      0.00000000</v>
   <v name="AVECCONST">      0.00000000      0.00000000      0.00000000</v>
  </separator>
  <separator name="response functions" >
   <i type="logical" name="LADDER"> F  </i>
   <i type="logical" name="LRPAFORCE"> F  </i>
   <i type="logical" name="LFXC"> F  </i>
   <i type="logical" name="LHARTREE"> T  </i>
   <i type="int" name="IBSE">     0</i>
   <v type="int" name="KPOINT">    -1     0     0     0</v>
   <i type="logical" name="LTCTE"> F  </i>
   <i type="logical" name="LTETE"> F  </i>
   <i type="logical" name="LTRIPLET"> F  </i>
   <i type="logical" name="LFXCEPS"> F  </i>
   <i type="logical" name="LFXHEG"> F  </i>
   <i type="int" name="NATURALO">     2</i>
   <i type="logical" name="L2ORDER"> F  </i>
   <i type="logical" name="LMP2LT"> F  </i>
   <i type="logical" name="LUSEW"> F  </i>
   <i name="ENCUTGW">     -2.00000000</i>
   <i name="ENCUTGWSOFT">     -2.00000000</i>
   <i name="ENCUTLF">     -1.00000000</i>
   <i type="int" name="LMAXMP2">    -1</i>
   <i name="SCISSOR">      0.00000000</i>
   <i type="int" name="NOMEGA">     0</i>
   <i type="int" name="NOMEGAR">     0</i>
   <i type="int" name="NBANDSGW">    -1</i>
   <i type="int" name="NBANDSO">    -1</i>
   <i type="int" name="NBANDSV">    -1</i>
   <i type="int" name="NELM">   200</i>
   <i type="int" name="NELMHF">     1</i>
   <i type="int" name="DIM">     3</i>
   <i type="int" name="ANTIRES">     0</i>
   <i name="OMEGAMAX">    -30.00000000</i>
   <i name="OMEGAMIN">    -30.00000000</i>
   <i name="OMEGATL">   -200.00000000</i>
   <i type="int" name="OMEGAGRID">   140</i>
   <i name="CSHIFT">     -0.10000000</i>
   <i type="logical" name="SELFENERGY"> F  </i>
   <i type="logical" name="LSPECTRAL"> F  </i>
   <i type="logical" name="LSPECTRALGW"> F  </i>
   <i type="logical" name="LSINGLES"> F  </i>
   <i type="logical" name="LFERMIGW"> F  </i>
   <i type="logical" name="ODDONLYGW"> F  </i>
   <i type="logical" name="EVENONLYGW"> F  </i>
   <i type="int" name="NKREDLFX">     1</i>
   <i type="int" name="NKREDLFY">     1</i>
   <i type="int" name="NKREDLFZ">     1</i>
   <i type="int" name="MAXMEM">  2800</i>
   <i type="int" name="TELESCOPE">     0</i>
   <i type="int" name="TAUPAR">     1</i>
   <i type="int" name="OMEGAPAR">    -1</i>
   <i name="LAMBDA">      1.00000000</i>
  </separator>
  <separator name="External order field" >
   <i name="OFIELD_KAPPA">      0.00000000</i>
   <v name="OFIELD_K">      0.00000000      0.00000000      0.00000000</v>
   <i name="OFIELD_Q6_NEAR">      0.00000000</i>
   <i name="OFIELD_Q6_FAR">      0.00000000</i>
   <i name="OFIELD_A">      0.00000000</i>
  </separator>
  <separator name="solvation model" >
   <i type="logical" name="LSOL"> F  </i>
  </separator>
 </parameters>
 <atominfo>
  <atoms>     114 </atoms>
  <types>       3 </types>
  <array name="atoms" >
   <dimension dim="1">ion</dimension>
   <field type="string">element</field>
   <field type="int">atomtype</field>
   <set>
    <rc><c>N </c><c>   1</c></rc>
    <rc><c>N </c><c>   1</c></rc>
    <rc><c>N </c><c>   1</c></rc>
    <rc><c>N </c><c>   1</c></rc>
    <rc><c>N </c><c>   1</c></rc>
    <rc><c>N </c><c>   1</c></rc>
    <rc><c>N </c><c>   1</c></rc>
    <rc><c>N </c><c>   1</c></rc>
    <rc><c>N </c><c>   1</c></rc>
    <rc><c>N </c><c>   1</c></rc>
    <rc><c>N </c><c>   1</c></rc>
    <rc><c>N </c><c>   1</c></rc>
    <rc><c>H </c><c>   2</c></rc>
    <rc><c>H </c><c>   2</c></rc>
    <rc><c>H </c><c>   2</c></rc>
    <rc><c>H </c><c>   2</c></rc>
    <rc><c>H </c><c>   2</c></rc>
    <rc><c>H </c><c>   2</c></rc>
    <rc><c>H </c><c>   2</c></rc>
    <rc><c>H </c><c>   2</c></rc>
    <rc><c>H </c><c>   2</c></rc>
    <rc><c>H </c><c>   2</c></rc>
    <rc><c>H </c><c>   2</c></rc>
    <rc><c>H </c><c>   2</c></rc>
    <rc><c>H </c><c>   2</c></rc>
    <rc><c>H </c><c>   2</c></rc>
    <rc><c>H </c><c>   2</c></rc>
    <rc><c>H </c><c>   2</c></rc>
    <rc><c>H </c><c>   2</c></rc>
    <rc><c>H </c><c>   2</c></rc>
    <rc><c>H </c><c>   2</c></rc>
    <rc><c>H </c><c>   2</c></rc>
    <rc><c>H </c><c>   2</c></rc>
    <rc><c>H </c><c>   2</c></rc>
    <rc><c>H </c><c>   2</c></rc>
    <rc><c>H </c><c>   2</c></rc>
    <rc><c>H </c><c>   2</c></rc>
    <rc><c>H </c><c>   2</c></rc>
    <rc><c>H </c><c>   2</c></rc>
    <rc><c>H </c><c>   2</c></rc>
    <rc><c>H </c><c>   2</c></rc>
    <rc><c>H </c><c>   2</c></rc>
    <rc><c>H </c><c>   2</c></rc>
    <rc><c>H </c><c>   2</c></rc>
    <rc><c>H </c><c>   2</c></rc>
    <rc><c>H </c><c>   2</c></rc>
    <rc><c>H </c><c>   2</c></rc>
    <rc><c>H </c><c>   2</c></rc>
    <rc><c>H </c><c>   2</c></rc>
    <rc><c>H </c><c>   2</c></rc>
    <rc><c>H </c><c>   2</c></rc>
    <rc><c>H </c><c>   2</c></rc>
    <rc><c>H </c><c>   2</c></rc>
    <rc><c>H </c><c>   2</c></rc>
    <rc><c>H </c><c>   2</c></rc>
    <rc><c>H </c><c>   2</c></rc>
    <rc><c>H </c><c>   2</c></rc>
    <rc><c>H </c><c>   2</c></rc>
    <rc><c>H </c><c>   2</c></rc>
    <rc><c>H </c><c>   2</c></rc>
    <rc><c>C </c><c>   3</c></rc>
    <rc><c>C </c><c>   3</c></rc>
    <rc><c>C </c><c>   3</c></rc>
    <rc><c>C </c><c>   3</c></rc>
    <rc><c>C </c><c>   3</c></rc>
    <rc><c>C </c><c>   3</c></rc>
    <rc><c>C </c><c>   3</c></rc>
    <rc><c>C </c><c>   3</c></rc>
    <rc><c>C </c><c>   3</c></rc>
    <rc><c>C </c><c>   3</c></rc>
    <rc><c>C </c><c>   3</c></rc>
    <rc><c>C </c><c>   3</c></rc>
    <rc><c>C </c><c>   3</c></rc>
    <rc><c>C </c><c>   3</c></rc>
    <rc><c>C </c><c>   3</c></rc>
    <rc><c>C </c><c>   3</c></rc>
    <rc><c>C </c><c>   3</c></rc>
    <rc><c>C </c><c>   3</c></rc>
    <rc><c>C </c><c>   3</c></rc>
    <rc><c>C </c><c>   3</c></rc>
    <rc><c>C </c><c>   3</c></rc>
    <rc><c>C </c><c>   3</c></rc>
    <rc><c>C </c><c>   3</c></rc>
    <rc><c>C </c><c>   3</c></rc>
    <rc><c>C </c><c>   3</c></rc>
    <rc><c>C </c><c>   3</c></rc>
    <rc><c>C </c><c>   3</c></rc>
    <rc><c>C </c><c>   3</c></rc>
    <rc><c>C </c><c>   3</c></rc>
    <rc><c>C </c><c>   3</c></rc>
    <rc><c>C </c><c>   3</c></rc>
    <rc><c>C </c><c>   3</c></rc>
    <rc><c>C </c><c>   3</c></rc>
    <rc><c>C </c><c>   3</c></rc>
    <rc><c>C </c><c>   3</c></rc>
    <rc><c>C </c><c>   3</c></rc>
    <rc><c>C </c><c>   3</c></rc>
    <rc><c>C </c><c>   3</c></rc>
    <rc><c>C </c><c>   3</c></rc>
    <rc><c>C </c><c>   3</c></rc>
    <rc><c>C </c><c>   3</c></rc>
    <rc><c>C </c><c>   3</c></rc>
    <rc><c>C </c><c>   3</c></rc>
    <rc><c>C </c><c>   3</c></rc>
    <rc><c>C </c><c>   3</c></rc>
    <rc><c>C </c><c>   3</c></rc>
    <rc><c>C </c><c>   3</c></rc>
    <rc><c>C </c><c>   3</c></rc>
    <rc><c>C </c><c>   3</c></rc>
    <rc><c>C </c><c>   3</c></rc>
    <rc><c>C </c><c>   3</c></rc>
    <rc><c>C </c><c>   3</c></rc>
    <rc><c>C </c><c>   3</c></rc>
    <rc><c>C </c><c>   3</c></rc>
   </set>
  </array>
  <array name="atomtypes" >
   <dimension dim="1">type</dimension>
   <field type="int">atomspertype</field>
   <field type="string">element</field>
   <field>mass</field>
   <field>valence</field>
   <field type="string">pseudopotential</field>
   <set>
    <rc><c>  12</c><c>N </c><c>     14.00100000</c><c>      5.00000000</c><c>  PAW_PBE N 08Apr2002                   </c></rc>
    <rc><c>  48</c><c>H </c><c>      1.00000000</c><c>      1.00000000</c><c>  PAW_PBE H 15Jun2001                   </c></rc>
    <rc><c>  54</c><c>C </c><c>     12.01100000</c><c>      4.00000000</c><c>  PAW_PBE C 08Apr2002                   </c></rc>
   </set>
  </array>
 </atominfo>
 <structure name="initialpos" >
  <crystal>
   <varray name="basis" >
    <v>      29.15653671      -0.06521430       0.00000000 </v>
    <v>     -14.63461730      25.19174831       0.00000000 </v>
    <v>       0.00000000       0.00000000      20.00000000 </v>
   </varray>
   <i name="volume">  14670.99496031 </i>
   <varray name="rec_basis" >
    <v>       0.03434225       0.01995041       0.00000000 </v>
    <v>       0.00008890       0.03974718       0.00000000 </v>
    <v>       0.00000000       0.00000000       0.05000000 </v>
   </varray>
  </crystal>
  <varray name="positions" >
   <v>       0.38879766       0.69052521       0.49454474 </v>
   <v>       0.30346968       0.61005090       0.49438896 </v>
   <v>       0.30869076       0.69526268       0.49393458 </v>
   <v>       0.38125108       0.60773901       0.49486350 </v>
   <v>       0.22815012       0.61742288       0.49358515 </v>
   <v>       0.39173172       0.77094882       0.49451645 </v>
   <v>       0.61167627       0.30337859       0.51072479 </v>
   <v>       0.69210556       0.38883547       0.51187955 </v>
   <v>       0.69683397       0.30863992       0.51167911 </v>
   <v>       0.61010598       0.38196300       0.51169985 </v>
   <v>       0.77244797       0.39082789       0.51264982 </v>
   <v>       0.61823749       0.22800315       0.51099361 </v>
   <v>       0.35708944       0.56803847       0.48883859 </v>
   <v>       0.21299275       0.64172410       0.48749966 </v>
   <v>       0.43133709       0.78637073       0.48835243 </v>
   <v>       0.63143312       0.42169088       0.52000338 </v>
   <v>       0.79078083       0.36954376       0.52028683 </v>
   <v>       0.57837413       0.20912719       0.51780701 </v>
   <v>       0.40087201       0.88198553       0.39069456 </v>
   <v>       0.56410370       0.14580226       0.42735939 </v>
   <v>       0.44963992       0.03922567       0.42934787 </v>
   <v>       0.49695753       0.07101401       0.36492341 </v>
   <v>       0.44070317       0.97125736       0.34690704 </v>
   <v>       0.50904714       0.99261006       0.35508970 </v>
   <v>       0.66741183       0.20683287       0.56454085 </v>
   <v>       0.67562139       0.21095481       0.47708584 </v>
   <v>       0.11660873       0.51685214       0.39091478 </v>
   <v>       0.85380480       0.41913540       0.42840892 </v>
   <v>       0.95869854       0.40938073       0.42868985 </v>
   <v>       0.92778813       0.42649503       0.36506923 </v>
   <v>       0.02730749       0.46896875       0.34690036 </v>
   <v>       0.00747782       0.51688348       0.35654712 </v>
   <v>       0.79450996       0.46121401       0.56728112 </v>
   <v>       0.79028297       0.46593925       0.47992025 </v>
   <v>       0.48468639       0.60055246       0.39332157 </v>
   <v>       0.58367405       0.43717768       0.42964257 </v>
   <v>       0.59267159       0.55192858       0.43351498 </v>
   <v>       0.57783905       0.50543205       0.36829055 </v>
   <v>       0.53484369       0.56169355       0.35012443 </v>
   <v>       0.48728193       0.49315769       0.35680004 </v>
   <v>       0.53933701       0.33255279       0.56522127 </v>
   <v>       0.53523336       0.32468678       0.47766910 </v>
   <v>       0.57721230       0.02198065       0.58580460 </v>
   <v>       0.64069547       0.11820617       0.59382132 </v>
   <v>       0.43235228       0.85752404       0.59382551 </v>
   <v>       0.50089708       0.95228941       0.60229625 </v>
   <v>       0.33889431       0.79520122       0.52522427 </v>
   <v>       0.34845662       0.79771077       0.43795152 </v>
   <v>       0.97943348       0.55420568       0.58828005 </v>
   <v>       0.88366282       0.52255745       0.59673763 </v>
   <v>       0.14198040       0.57044333       0.59519062 </v>
   <v>       0.04786068       0.54566275       0.60405296 </v>
   <v>       0.20347403       0.54036657       0.52597358 </v>
   <v>       0.20035620       0.54629398       0.43853354 </v>
   <v>       0.44510209       0.42246509       0.58638917 </v>
   <v>       0.47698652       0.35871500       0.59394427 </v>
   <v>       0.42638869       0.56709435       0.59545109 </v>
   <v>       0.45231069       0.49872966       0.60379418 </v>
   <v>       0.45800746       0.66074687       0.52805145 </v>
   <v>       0.45255364       0.65230282       0.44052128 </v>
   <v>       0.36165723       0.71699973       0.49441253 </v>
   <v>       0.35730642       0.63747736       0.49469514 </v>
   <v>       0.28201098       0.64139232       0.49407410 </v>
   <v>       0.64358417       0.28196105       0.51100486 </v>
   <v>       0.63854887       0.35668116       0.51130773 </v>
   <v>       0.71850528       0.36218887       0.51193033 </v>
   <v>       0.46216652       0.95118864       0.44085368 </v>
   <v>       0.42329275       0.89743974       0.43713676 </v>
   <v>       0.60647922       0.13902789       0.51183579 </v>
   <v>       0.56659157       0.11862344       0.46291801 </v>
   <v>       0.52965463       0.06439817       0.45848430 </v>
   <v>       0.48599367       0.04294023       0.40681098 </v>
   <v>       0.47407622       0.98821316       0.38236371 </v>
   <v>       0.64539356       0.19790140       0.51692510 </v>
   <v>       0.04812630       0.50954085       0.44164748 </v>
   <v>       0.10149623       0.52361395       0.43770016 </v>
   <v>       0.86174153       0.46794348       0.51386701 </v>
   <v>       0.88138684       0.44841016       0.46424008 </v>
   <v>       0.93532027       0.46508756       0.45950222 </v>
   <v>       0.95590971       0.44280242       0.40702118 </v>
   <v>       0.01099713       0.48548099       0.38297549 </v>
   <v>       0.80307586       0.44829865       0.51931960 </v>
   <v>       0.49188626       0.53900617       0.44314837 </v>
   <v>       0.47712805       0.57771854       0.43949297 </v>
   <v>       0.53318238       0.39382070       0.51298357 </v>
   <v>       0.55364689       0.43433070       0.46483990 </v>
   <v>       0.53688554       0.47143755       0.46074363 </v>
   <v>       0.56014903       0.51578749       0.40997599 </v>
   <v>       0.51772903       0.52786196       0.38493833 </v>
   <v>       0.55265157       0.35476001       0.51770247 </v>
   <v>       0.41201961       0.86299707       0.49131821 </v>
   <v>       0.44097858       0.88356528       0.55062928 </v>
   <v>       0.47991301       0.93697971       0.55507059 </v>
   <v>       0.49147896       0.97166369       0.50055760 </v>
   <v>       0.53227145       0.02858429       0.50399950 </v>
   <v>       0.57337385       0.04896704       0.55150098 </v>
   <v>       0.60958547       0.10328070       0.55578016 </v>
   <v>       0.36931015       0.80534371       0.48630618 </v>
   <v>       0.13598392       0.54573321       0.49209060 </v>
   <v>       0.11588487       0.55386135       0.55186069 </v>
   <v>       0.06286343       0.54020734       0.55653093 </v>
   <v>       0.02814141       0.51818184       0.50179851 </v>
   <v>       0.97161091       0.50290751       0.50547393 </v>
   <v>       0.95203032       0.52378105       0.55363917 </v>
   <v>       0.89798621       0.50630581       0.55818018 </v>
   <v>       0.19332076       0.56026312       0.48665603 </v>
   <v>       0.45334741       0.58833662       0.49341906 </v>
   <v>       0.44424301       0.55892544       0.55243683 </v>
   <v>       0.45856014       0.52011274       0.55680422 </v>
   <v>       0.48222272       0.50914932       0.50250427 </v>
   <v>       0.49795766       0.46832402       0.50575013 </v>
   <v>       0.47628791       0.42664166       0.55247999 </v>
   <v>       0.49390364       0.39028260       0.55648889 </v>
   <v>       0.43842729       0.63077813       0.48836581 </v>
  </varray>
 </structure>
 <calculation>
  <scstep>
   <time name="dav">  588.32  594.26</time>
   <time name="total">  588.59  594.54</time>
   <energy>
    <i name="alphaZ">     32.78443542 </i>
    <i name="ewald">  38550.43279978 </i>
    <i name="hartreedc"> -48166.96525847 </i>
    <i name="XCdc">   1122.30792025 </i>
    <i name="pawpsdc">  29312.64281406 </i>
    <i name="pawaedc"> -29368.09532881 </i>
    <i name="eentropy">     -0.00000000 </i>
    <i name="bandstr">  -3968.08523265 </i>
    <i name="atom">  11719.78159797 </i>
    <i name="e_fr_energy">   -765.19625245 </i>
    <i name="e_wo_entrp">   -765.19625245 </i>
    <i name="e_0_energy">   -765.19625245 </i>
   </energy>
  </scstep>
  <scstep>
   <time name="dav">  668.29  675.18</time>
   <time name="total">  668.30  675.20</time>
   <energy>
    <i name="e_fr_energy">   -765.78781099 </i>
    <i name="e_wo_entrp">   -765.78781099 </i>
    <i name="e_0_energy">   -765.78781099 </i>
   </energy>
  </scstep>
  <scstep>
   <time name="dav">  723.54  730.67</time>
   <time name="total">  723.55  730.68</time>
   <energy>
    <i name="e_fr_energy">   -765.80261469 </i>
    <i name="e_wo_entrp">   -765.80261469 </i>
    <i name="e_0_energy">   -765.80261469 </i>
   </energy>
  </scstep>
  <scstep>
   <time name="dav">  662.71  669.27</time>
   <time name="total">  662.73  669.29</time>
   <energy>
    <i name="e_fr_energy">   -765.80296021 </i>
    <i name="e_wo_entrp">   -765.80296021 </i>
    <i name="e_0_energy">   -765.80296021 </i>
   </energy>
  </scstep>
  <scstep>
   <time name="dav">  616.56  622.67</time>
   <time name="total">  616.58  622.69</time>
   <energy>
    <i name="e_fr_energy">   -765.80297577 </i>
    <i name="e_wo_entrp">   -765.80297577 </i>
    <i name="e_0_energy">   -765.80297577 </i>
   </energy>
  </scstep>
  <scstep>
   <time name="dav">  508.11  513.11</time>
   <time name="total">  508.13  513.13</time>
   <energy>
    <i name="alphaZ">     32.78443542 </i>
    <i name="ewald">  38550.43279978 </i>
    <i name="hartreedc"> -48166.96525847 </i>
    <i name="XCdc">   1122.30792025 </i>
    <i name="pawpsdc">  29312.64281406 </i>
    <i name="pawaedc"> -29368.09532881 </i>
    <i name="eentropy">     -0.00000000 </i>
    <i name="bandstr">  -3968.69195666 </i>
    <i name="atom">  11719.78159797 </i>
    <i name="e_fr_energy">   -765.80297646 </i>
    <i name="e_wo_entrp">   -765.80297646 </i>
    <i name="e_0_energy">   -765.80297646 </i>
   </energy>
  </scstep>
  <structure>
   <crystal>
    <varray name="basis" >
     <v>      29.15653671      -0.06521430       0.00000000 </v>
     <v>     -14.63461730      25.19174831       0.00000000 </v>
     <v>       0.00000000       0.00000000      20.00000000 </v>
    </varray>
    <i name="volume">  14670.99496031 </i>
    <varray name="rec_basis" >
     <v>       0.03434225       0.01995041       0.00000000 </v>
     <v>       0.00008890       0.03974718       0.00000000 </v>
     <v>       0.00000000       0.00000000       0.05000000 </v>
    </varray>
   </crystal>
   <varray name="positions" >
    <v>       0.38879766       0.69052521       0.49454474 </v>
    <v>       0.30346968       0.61005090       0.49438896 </v>
    <v>       0.30869076       0.69526268       0.49393458 </v>
    <v>       0.38125108       0.60773901       0.49486350 </v>
    <v>       0.22815012       0.61742288       0.49358515 </v>
    <v>       0.39173172       0.77094882       0.49451645 </v>
    <v>       0.61167627       0.30337859       0.51072479 </v>
    <v>       0.69210556       0.38883547       0.51187955 </v>
    <v>       0.69683397       0.30863992       0.51167911 </v>
    <v>       0.61010598       0.38196300       0.51169985 </v>
    <v>       0.77244797       0.39082789       0.51264982 </v>
    <v>       0.61823749       0.22800315       0.51099361 </v>
    <v>       0.35708944       0.56803847       0.48883859 </v>
    <v>       0.21299275       0.64172410       0.48749966 </v>
    <v>       0.43133709       0.78637073       0.48835243 </v>
    <v>       0.63143312       0.42169088       0.52000338 </v>
    <v>       0.79078083       0.36954376       0.52028683 </v>
    <v>       0.57837413       0.20912719       0.51780701 </v>
    <v>       0.40087201       0.88198553       0.39069456 </v>
    <v>       0.56410370       0.14580226       0.42735939 </v>
    <v>       0.44963992       0.03922567       0.42934787 </v>
    <v>       0.49695753       0.07101401       0.36492341 </v>
    <v>       0.44070317       0.97125736       0.34690704 </v>
    <v>       0.50904714       0.99261006       0.35508970 </v>
    <v>       0.66741183       0.20683287       0.56454085 </v>
    <v>       0.67562139       0.21095481       0.47708584 </v>
    <v>       0.11660873       0.51685214       0.39091478 </v>
    <v>       0.85380480       0.41913540       0.42840892 </v>
    <v>       0.95869854       0.40938073       0.42868985 </v>
    <v>       0.92778813       0.42649503       0.36506923 </v>
    <v>       0.02730749       0.46896875       0.34690036 </v>
    <v>       0.00747782       0.51688348       0.35654712 </v>
    <v>       0.79450996       0.46121401       0.56728112 </v>
    <v>       0.79028297       0.46593925       0.47992025 </v>
    <v>       0.48468639       0.60055246       0.39332157 </v>
    <v>       0.58367405       0.43717768       0.42964257 </v>
    <v>       0.59267159       0.55192858       0.43351498 </v>
    <v>       0.57783905       0.50543205       0.36829055 </v>
    <v>       0.53484369       0.56169355       0.35012443 </v>
    <v>       0.48728193       0.49315769       0.35680004 </v>
    <v>       0.53933701       0.33255279       0.56522127 </v>
    <v>       0.53523336       0.32468678       0.47766910 </v>
    <v>       0.57721230       0.02198065       0.58580460 </v>
    <v>       0.64069547       0.11820617       0.59382132 </v>
    <v>       0.43235228       0.85752404       0.59382551 </v>
    <v>       0.50089708       0.95228941       0.60229625 </v>
    <v>       0.33889431       0.79520122       0.52522427 </v>
    <v>       0.34845662       0.79771077       0.43795152 </v>
    <v>       0.97943348       0.55420568       0.58828005 </v>
    <v>       0.88366282       0.52255745       0.59673763 </v>
    <v>       0.14198040       0.57044333       0.59519062 </v>
    <v>       0.04786068       0.54566275       0.60405296 </v>
    <v>       0.20347403       0.54036657       0.52597358 </v>
    <v>       0.20035620       0.54629398       0.43853354 </v>
    <v>       0.44510209       0.42246509       0.58638917 </v>
    <v>       0.47698652       0.35871500       0.59394427 </v>
    <v>       0.42638869       0.56709435       0.59545109 </v>
    <v>       0.45231069       0.49872966       0.60379418 </v>
    <v>       0.45800746       0.66074687       0.52805145 </v>
    <v>       0.45255364       0.65230282       0.44052128 </v>
    <v>       0.36165723       0.71699973       0.49441253 </v>
    <v>       0.35730642       0.63747736       0.49469514 </v>
    <v>       0.28201098       0.64139232       0.49407410 </v>
    <v>       0.64358417       0.28196105       0.51100486 </v>
    <v>       0.63854887       0.35668116       0.51130773 </v>
    <v>       0.71850528       0.36218887       0.51193033 </v>
    <v>       0.46216652       0.95118864       0.44085368 </v>
    <v>       0.42329275       0.89743974       0.43713676 </v>
    <v>       0.60647922       0.13902789       0.51183579 </v>
    <v>       0.56659157       0.11862344       0.46291801 </v>
    <v>       0.52965463       0.06439817       0.45848430 </v>
    <v>       0.48599367       0.04294023       0.40681098 </v>
    <v>       0.47407622       0.98821316       0.38236371 </v>
    <v>       0.64539356       0.19790140       0.51692510 </v>
    <v>       0.04812630       0.50954085       0.44164748 </v>
    <v>       0.10149623       0.52361395       0.43770016 </v>
    <v>       0.86174153       0.46794348       0.51386701 </v>
    <v>       0.88138684       0.44841016       0.46424008 </v>
    <v>       0.93532027       0.46508756       0.45950222 </v>
    <v>       0.95590971       0.44280242       0.40702118 </v>
    <v>       0.01099713       0.48548099       0.38297549 </v>
    <v>       0.80307586       0.44829865       0.51931960 </v>
    <v>       0.49188626       0.53900617       0.44314837 </v>
    <v>       0.47712805       0.57771854       0.43949297 </v>
    <v>       0.53318238       0.39382070       0.51298357 </v>
    <v>       0.55364689       0.43433070       0.46483990 </v>
    <v>       0.53688554       0.47143755       0.46074363 </v>
    <v>       0.56014903       0.51578749       0.40997599 </v>
    <v>       0.51772903       0.52786196       0.38493833 </v>
    <v>       0.55265157       0.35476001       0.51770247 </v>
    <v>       0.41201961       0.86299707       0.49131821 </v>
    <v>       0.44097858       0.88356528       0.55062928 </v>
    <v>       0.47991301       0.93697971       0.55507059 </v>
    <v>       0.49147896       0.97166369       0.50055760 </v>
    <v>       0.53227145       0.02858429       0.50399950 </v>
    <v>       0.57337385       0.04896704       0.55150098 </v>
    <v>       0.60958547       0.10328070       0.55578016 </v>
    <v>       0.36931015       0.80534371       0.48630618 </v>
    <v>       0.13598392       0.54573321       0.49209060 </v>
    <v>       0.11588487       0.55386135       0.55186069 </v>
    <v>       0.06286343       0.54020734       0.55653093 </v>
    <v>       0.02814141       0.51818184       0.50179851 </v>
    <v>       0.97161091       0.50290751       0.50547393 </v>
    <v>       0.95203032       0.52378105       0.55363917 </v>
    <v>       0.89798621       0.50630581       0.55818018 </v>
    <v>       0.19332076       0.56026312       0.48665603 </v>
    <v>       0.45334741       0.58833662       0.49341906 </v>
    <v>       0.44424301       0.55892544       0.55243683 </v>
    <v>       0.45856014       0.52011274       0.55680422 </v>
    <v>       0.48222272       0.50914932       0.50250427 </v>
    <v>       0.49795766       0.46832402       0.50575013 </v>
    <v>       0.47628791       0.42664166       0.55247999 </v>
    <v>       0.49390364       0.39028260       0.55648889 </v>
    <v>       0.43842729       0.63077813       0.48836581 </v>
   </varray>
  </structure>
  <varray name="forces" >
   <v>      -0.00175572       0.00104014       0.00003253 </v>
   <v>      -0.00034161       0.00230789      -0.00166895 </v>
   <v>       0.00377818       0.00443147      -0.00005638 </v>
   <v>      -0.00031224      -0.00128481       0.00294967 </v>
   <v>      -0.00016019      -0.00614057       0.00051846 </v>
   <v>      -0.00020504       0.00251893       0.00167030 </v>
   <v>      -0.00211257       0.00272884       0.00044128 </v>
   <v>      -0.00770376      -0.00172192       0.00008632 </v>
   <v>       0.00115797      -0.00228169       0.00124278 </v>
   <v>      -0.00045385       0.00458804       0.00296533 </v>
   <v>       0.00029416       0.00203412       0.00178291 </v>
   <v>      -0.00204031       0.00152651      -0.00000192 </v>
   <v>       0.00056979      -0.00036091      -0.00096457 </v>
   <v>       0.00038685      -0.00088455       0.00012544 </v>
   <v>      -0.00067882      -0.00151914      -0.00016376 </v>
   <v>      -0.00038957      -0.00262640      -0.00302224 </v>
   <v>      -0.00074494      -0.00178441      -0.00094567 </v>
   <v>      -0.00519648      -0.00123929       0.00207198 </v>
   <v>       0.00063079      -0.00130513      -0.00251020 </v>
   <v>       0.00223119      -0.00178069      -0.00045526 </v>
   <v>       0.00289730      -0.00089214      -0.00151151 </v>
   <v>       0.00135904      -0.00046088      -0.00056379 </v>
   <v>       0.00137296      -0.00121027      -0.00105633 </v>
   <v>       0.00270518      -0.00112638       0.00094471 </v>
   <v>      -0.00028556       0.00088383       0.00231725 </v>
   <v>      -0.00039743      -0.00117715       0.00121022 </v>
   <v>      -0.00096205       0.00163341      -0.00088781 </v>
   <v>      -0.00032693       0.00370835       0.00116688 </v>
   <v>      -0.00010011       0.00019113      -0.00246587 </v>
   <v>       0.00017195       0.00068147      -0.00176822 </v>
   <v>       0.00076227       0.00022348      -0.00194956 </v>
   <v>      -0.00195971       0.00355454      -0.00127021 </v>
   <v>       0.00140933       0.00009868       0.00158901 </v>
   <v>       0.00013303       0.00132890      -0.00055182 </v>
   <v>      -0.00185127      -0.00107831      -0.00101334 </v>
   <v>      -0.00188921      -0.00052365       0.00095464 </v>
   <v>       0.00074279      -0.00092739      -0.00210439 </v>
   <v>      -0.00140219      -0.00160895      -0.00080232 </v>
   <v>      -0.00061233      -0.00354402       0.00118928 </v>
   <v>      -0.00100386      -0.00248929      -0.00065445 </v>
   <v>       0.00015859       0.00100750      -0.00489764 </v>
   <v>      -0.00252961       0.00032711       0.00291878 </v>
   <v>      -0.00253814       0.00123822       0.00067465 </v>
   <v>      -0.00247893       0.00023615       0.00043934 </v>
   <v>      -0.00120267       0.00140177      -0.00249265 </v>
   <v>      -0.00241478      -0.00015913      -0.00214021 </v>
   <v>       0.00152755      -0.00060213      -0.00405111 </v>
   <v>       0.00003515      -0.00024920      -0.00223462 </v>
   <v>       0.00238594       0.00128119       0.00395407 </v>
   <v>      -0.00030974       0.00026036       0.00293698 </v>
   <v>       0.00108765      -0.00038560       0.00055888 </v>
   <v>       0.00128724      -0.00130281       0.00044564 </v>
   <v>      -0.00008363      -0.00059855      -0.00170440 </v>
   <v>      -0.00018366      -0.00242543       0.00106801 </v>
   <v>       0.00117935       0.00102371       0.00121057 </v>
   <v>       0.00147615       0.00127256       0.00183665 </v>
   <v>       0.00109074       0.00025601       0.00121285 </v>
   <v>       0.00058796       0.00115792       0.00102801 </v>
   <v>      -0.00020072       0.00041162      -0.00382072 </v>
   <v>       0.00168748       0.00112371       0.00360570 </v>
   <v>       0.00348509      -0.00213971       0.00014202 </v>
   <v>      -0.00390544       0.00041879      -0.00053244 </v>
   <v>       0.00263762      -0.00485202      -0.00122742 </v>
   <v>      -0.00101052       0.00234720       0.00249694 </v>
   <v>       0.00452600       0.00050182       0.00096483 </v>
   <v>       0.00177658       0.00036622       0.00331085 </v>
   <v>       0.00248409       0.00283947       0.00236232 </v>
   <v>      -0.00024627      -0.00563096       0.00083217 </v>
   <v>      -0.00064288      -0.00182112       0.00227741 </v>
   <v>       0.00003378       0.00204090       0.00017945 </v>
   <v>      -0.00123516       0.00041934      -0.00268837 </v>
   <v>      -0.00058471       0.00175301       0.00142623 </v>
   <v>      -0.00031115       0.00393766      -0.00285929 </v>
   <v>       0.00390390       0.00114448      -0.00214611 </v>
   <v>      -0.00412966      -0.00025178       0.00077762 </v>
   <v>       0.00064842      -0.00091331       0.00059853 </v>
   <v>       0.00149642      -0.00145995      -0.00094310 </v>
   <v>       0.00433678      -0.00156060      -0.00432207 </v>
   <v>      -0.00495647      -0.00173451      -0.00239765 </v>
   <v>      -0.00191333       0.00206841       0.00219484 </v>
   <v>       0.00100847       0.00083112      -0.00000037 </v>
   <v>      -0.00324136      -0.00157836      -0.00187675 </v>
   <v>       0.00060977      -0.00162638      -0.00007212 </v>
   <v>       0.00128825       0.00246609      -0.00120523 </v>
   <v>       0.00357607      -0.00190465      -0.00212711 </v>
   <v>      -0.00216606       0.00087930      -0.00096445 </v>
   <v>       0.00236297       0.00264566      -0.00219480 </v>
   <v>      -0.00155468      -0.00079470       0.00054560 </v>
   <v>      -0.00237379       0.00091409      -0.00220085 </v>
   <v>       0.00091783      -0.00059632       0.00110550 </v>
   <v>       0.00178762      -0.00117049       0.00259597 </v>
   <v>       0.00011633       0.00006475       0.00159549 </v>
   <v>      -0.00028053       0.00106476       0.00442834 </v>
   <v>      -0.00085905      -0.00259250       0.00151411 </v>
   <v>      -0.00148222       0.00122528      -0.00079050 </v>
   <v>       0.00075714      -0.00130200       0.00172609 </v>
   <v>      -0.00130908       0.00042331       0.00302260 </v>
   <v>      -0.00351328       0.00081414      -0.00053331 </v>
   <v>       0.00291911      -0.00078860      -0.00300626 </v>
   <v>      -0.00146375      -0.00223272      -0.00100237 </v>
   <v>      -0.00083366      -0.00162727       0.00042344 </v>
   <v>       0.00090045       0.00091525       0.00221868 </v>
   <v>       0.00259600      -0.00203937      -0.00045065 </v>
   <v>       0.00272466      -0.00077204      -0.00003360 </v>
   <v>      -0.00086661      -0.00366023      -0.00026168 </v>
   <v>       0.00065815       0.00310739      -0.00112948 </v>
   <v>       0.00024793      -0.00014795      -0.00210234 </v>
   <v>       0.00249595      -0.00002387       0.00075902 </v>
   <v>      -0.00153110       0.00267096       0.00147330 </v>
   <v>      -0.00074671       0.00060028      -0.00207225 </v>
   <v>      -0.00028638       0.00226784       0.00092523 </v>
   <v>      -0.00008407       0.00294495       0.00244443 </v>
   <v>       0.00203710       0.00057282       0.00042519 </v>
   <v>       0.00091649       0.00018933      -0.00104489 </v>
  </varray>
  <varray name="stress" >
   <v>       0.00801762      -0.00252348      -0.00000930 </v>
   <v>      -0.00252348       0.00616512       0.00210818 </v>
   <v>      -0.00000930       0.00210818      -0.15335248 </v>
  </varray>
  <energy>
   <i name="e_fr_energy">   -767.87137485 </i>
   <i name="e_wo_entrp">   -767.87137485 </i>
   <i name="e_0_energy">     -0.00000000 </i>
  </energy>
  <time name="totalsc"> 4376.03 4421.55</time>
  <eigenvalues>
   <array>
    <dimension dim="1">band</dimension>
    <dimension dim="2">kpoint</dimension>
    <dimension dim="3">spin</dimension>
    <field>eigene</field>
    <field>occ</field>
    <set>
     <set comment="spin 1">
      <set comment="kpoint 1">
       <r>  -25.0232    1.0000 </r>
       <r>  -24.9784    1.0000 </r>
       <r>  -23.5070    1.0000 </r>
       <r>  -23.5041    1.0000 </r>
       <r>  -23.4489    1.0000 </r>
       <r>  -23.4442    1.0000 </r>
       <r>  -22.1374    1.0000 </r>
       <r>  -22.0701    1.0000 </r>
       <r>  -21.6280    1.0000 </r>
       <r>  -21.6274    1.0000 </r>
       <r>  -21.5455    1.0000 </r>
       <r>  -21.0780    1.0000 </r>
       <r>  -21.0768    1.0000 </r>
       <r>  -20.8272    1.0000 </r>
       <r>  -20.8248    1.0000 </r>
       <r>  -20.7893    1.0000 </r>
       <r>  -20.5872    1.0000 </r>
       <r>  -20.5843    1.0000 </r>
       <r>  -19.7721    1.0000 </r>
       <r>  -19.7696    1.0000 </r>
       <r>  -19.7685    1.0000 </r>
       <r>  -19.0753    1.0000 </r>
       <r>  -19.0740    1.0000 </r>
       <r>  -19.0486    1.0000 </r>
       <r>  -18.5257    1.0000 </r>
       <r>  -18.5244    1.0000 </r>
       <r>  -18.4654    1.0000 </r>
       <r>  -18.2264    1.0000 </r>
       <r>  -18.2255    1.0000 </r>
       <r>  -18.1588    1.0000 </r>
       <r>  -17.4440    1.0000 </r>
       <r>  -17.4431    1.0000 </r>
       <r>  -17.4392    1.0000 </r>
       <r>  -17.2664    1.0000 </r>
       <r>  -17.2640    1.0000 </r>
       <r>  -16.9947    1.0000 </r>
       <r>  -16.4838    1.0000 </r>
       <r>  -16.4812    1.0000 </r>
       <r>  -16.2005    1.0000 </r>
       <r>  -15.4815    1.0000 </r>
       <r>  -15.4797    1.0000 </r>
       <r>  -15.4194    1.0000 </r>
       <r>  -15.2540    1.0000 </r>
       <r>  -15.2518    1.0000 </r>
       <r>  -15.0218    1.0000 </r>
       <r>  -15.0060    1.0000 </r>
       <r>  -14.9987    1.0000 </r>
       <r>  -14.7760    1.0000 </r>
       <r>  -14.7705    1.0000 </r>
       <r>  -14.5566    1.0000 </r>
       <r>  -14.2079    1.0000 </r>
       <r>  -14.2063    1.0000 </r>
       <r>  -14.1431    1.0000 </r>
       <r>  -14.0032    1.0000 </r>
       <r>  -13.9952    1.0000 </r>
       <r>  -13.9921    1.0000 </r>
       <r>  -13.6758    1.0000 </r>
       <r>  -13.0977    1.0000 </r>
       <r>  -13.0975    1.0000 </r>
       <r>  -13.0368    1.0000 </r>
       <r>  -12.7672    1.0000 </r>
       <r>  -12.6530    1.0000 </r>
       <r>  -12.5497    1.0000 </r>
       <r>  -12.5482    1.0000 </r>
       <r>  -12.3682    1.0000 </r>
       <r>  -12.0555    1.0000 </r>
       <r>  -12.0536    1.0000 </r>
       <r>  -11.8169    1.0000 </r>
       <r>  -11.7977    1.0000 </r>
       <r>  -11.7950    1.0000 </r>
       <r>  -11.6890    1.0000 </r>
       <r>  -11.6867    1.0000 </r>
       <r>  -11.2317    1.0000 </r>
       <r>  -11.1131    1.0000 </r>
       <r>  -11.0998    1.0000 </r>
       <r>  -11.0991    1.0000 </r>
       <r>  -11.0396    1.0000 </r>
       <r>  -10.9600    1.0000 </r>
       <r>  -10.9579    1.0000 </r>
       <r>  -10.9049    1.0000 </r>
       <r>  -10.8353    1.0000 </r>
       <r>  -10.8321    1.0000 </r>
       <r>  -10.7863    1.0000 </r>
       <r>  -10.7858    1.0000 </r>
       <r>  -10.7273    1.0000 </r>
       <r>  -10.5032    1.0000 </r>
       <r>  -10.4996    1.0000 </r>
       <r>  -10.4334    1.0000 </r>
       <r>  -10.2890    1.0000 </r>
       <r>  -10.2815    1.0000 </r>
       <r>  -10.1981    1.0000 </r>
       <r>  -10.1406    1.0000 </r>
       <r>  -10.1390    1.0000 </r>
       <r>  -10.0747    1.0000 </r>
       <r>  -10.0603    1.0000 </r>
       <r>  -10.0192    1.0000 </r>
       <r>  -10.0148    1.0000 </r>
       <r>   -9.9079    1.0000 </r>
       <r>   -9.8977    1.0000 </r>
       <r>   -9.8970    1.0000 </r>
       <r>   -9.5827    1.0000 </r>
       <r>   -9.5709    1.0000 </r>
       <r>   -9.5690    1.0000 </r>
       <r>   -9.4673    1.0000 </r>
       <r>   -9.3350    1.0000 </r>
       <r>   -9.3013    1.0000 </r>
       <r>   -9.2993    1.0000 </r>
       <r>   -9.2592    1.0000 </r>
       <r>   -9.2588    1.0000 </r>
       <r>   -9.2172    1.0000 </r>
       <r>   -9.2160    1.0000 </r>
       <r>   -9.1888    1.0000 </r>
       <r>   -9.0993    1.0000 </r>
       <r>   -8.9059    1.0000 </r>
       <r>   -8.9050    1.0000 </r>
       <r>   -8.8931    1.0000 </r>
       <r>   -8.7322    1.0000 </r>
       <r>   -8.7306    1.0000 </r>
       <r>   -8.7127    1.0000 </r>
       <r>   -8.3680    1.0000 </r>
       <r>   -8.2905    1.0000 </r>
       <r>   -8.2847    1.0000 </r>
       <r>   -8.2831    1.0000 </r>
       <r>   -8.2328    1.0000 </r>
       <r>   -8.2314    1.0000 </r>
       <r>   -8.2009    1.0000 </r>
       <r>   -8.0844    1.0000 </r>
       <r>   -8.0824    1.0000 </r>
       <r>   -8.0058    1.0000 </r>
       <r>   -7.9610    1.0000 </r>
       <r>   -7.7884    1.0000 </r>
       <r>   -7.7857    1.0000 </r>
       <r>   -7.7347    1.0000 </r>
       <r>   -7.7329    1.0000 </r>
       <r>   -7.3928    1.0000 </r>
       <r>   -7.3894    1.0000 </r>
       <r>   -7.3875    1.0000 </r>
       <r>   -7.3648    1.0000 </r>
       <r>   -7.3379    1.0000 </r>
       <r>   -7.3367    1.0000 </r>
       <r>   -6.6251    1.0000 </r>
       <r>   -6.6074    1.0000 </r>
       <r>   -6.6036    1.0000 </r>
       <r>   -5.9626    1.0000 </r>
       <r>   -5.9594    1.0000 </r>
       <r>   -5.9584    1.0000 </r>
       <r>   -5.8513    1.0000 </r>
       <r>   -5.8497    1.0000 </r>
       <r>   -5.8486    1.0000 </r>
       <r>   -5.4748    1.0000 </r>
       <r>   -5.4701    1.0000 </r>
       <r>   -5.4125    1.0000 </r>
       <r>   -5.4094    1.0000 </r>
       <r>   -5.3118    1.0000 </r>
       <r>   -5.1574    1.0000 </r>
       <r>   -5.1504    1.0000 </r>
       <r>   -5.1471    1.0000 </r>
       <r>   -4.9918    1.0000 </r>
       <r>   -4.9676    1.0000 </r>
       <r>   -4.9652    1.0000 </r>
       <r>   -4.8945    1.0000 </r>
       <r>   -4.8926    1.0000 </r>
       <r>   -1.6933    0.0000 </r>
       <r>   -1.6892    0.0000 </r>
       <r>   -1.6864    0.0000 </r>
       <r>   -1.1585    0.0000 </r>
       <r>   -1.1566    0.0000 </r>
       <r>   -1.1462    0.0000 </r>
       <r>   -0.8020    0.0000 </r>
       <r>   -0.8005    0.0000 </r>
       <r>   -0.7842    0.0000 </r>
       <r>   -0.3656    0.0000 </r>
       <r>   -0.3308    0.0000 </r>
       <r>   -0.3307    0.0000 </r>
       <r>   -0.2049    0.0000 </r>
       <r>   -0.2025    0.0000 </r>
       <r>   -0.1727    0.0000 </r>
       <r>   -0.1664    0.0000 </r>
       <r>   -0.1458    0.0000 </r>
       <r>   -0.1131    0.0000 </r>
       <r>   -0.0483    0.0000 </r>
       <r>   -0.0468    0.0000 </r>
       <r>    0.0060    0.0000 </r>
       <r>    0.0073    0.0000 </r>
       <r>    0.0196    0.0000 </r>
       <r>    0.1591    0.0000 </r>
       <r>    0.1628    0.0000 </r>
       <r>    0.2873    0.0000 </r>
       <r>    0.3072    0.0000 </r>
       <r>    0.3096    0.0000 </r>
       <r>    0.3457    0.0000 </r>
       <r>    0.3937    0.0000 </r>
       <r>    0.3959    0.0000 </r>
       <r>    0.4011    0.0000 </r>
       <r>    0.4853    0.0000 </r>
       <r>    0.5133    0.0000 </r>
       <r>    0.5993    0.0000 </r>
       <r>    0.6021    0.0000 </r>
       <r>    0.6368    0.0000 </r>
       <r>    0.6374    0.0000 </r>
       <r>    0.6730    0.0000 </r>
       <r>    0.6798    0.0000 </r>
       <r>    0.6809    0.0000 </r>
       <r>    0.7322    0.0000 </r>
       <r>    0.7711    0.0000 </r>
       <r>    0.7753    0.0000 </r>
       <r>    0.7825    0.0000 </r>
       <r>    0.8267    0.0000 </r>
       <r>    0.8280    0.0000 </r>
       <r>    0.8496    0.0000 </r>
       <r>    0.8670    0.0000 </r>
       <r>    0.8948    0.0000 </r>
       <r>    0.9284    0.0000 </r>
       <r>    0.9302    0.0000 </r>
       <r>    0.9399    0.0000 </r>
       <r>    0.9835    0.0000 </r>
       <r>    0.9851    0.0000 </r>
       <r>    1.0094    0.0000 </r>
       <r>    1.0265    0.0000 </r>
       <r>    1.0284    0.0000 </r>
       <r>    1.1099    0.0000 </r>
       <r>    1.1115    0.0000 </r>
       <r>    1.1680    0.0000 </r>
       <r>    1.1742    0.0000 </r>
      </set>
      <set comment="kpoint 2">
       <r>  -25.0232    1.0000 </r>
       <r>  -24.9784    1.0000 </r>
       <r>  -23.5070    1.0000 </r>
       <r>  -23.5041    1.0000 </r>
       <r>  -23.4489    1.0000 </r>
       <r>  -23.4442    1.0000 </r>
       <r>  -22.1374    1.0000 </r>
       <r>  -22.0701    1.0000 </r>
       <r>  -21.6280    1.0000 </r>
       <r>  -21.6273    1.0000 </r>
       <r>  -21.5457    1.0000 </r>
       <r>  -21.0780    1.0000 </r>
       <r>  -21.0766    1.0000 </r>
       <r>  -20.8276    1.0000 </r>
       <r>  -20.8266    1.0000 </r>
       <r>  -20.7872    1.0000 </r>
       <r>  -20.5872    1.0000 </r>
       <r>  -20.5844    1.0000 </r>
       <r>  -19.7721    1.0000 </r>
       <r>  -19.7696    1.0000 </r>
       <r>  -19.7685    1.0000 </r>
       <r>  -19.0753    1.0000 </r>
       <r>  -19.0740    1.0000 </r>
       <r>  -19.0487    1.0000 </r>
       <r>  -18.5257    1.0000 </r>
       <r>  -18.5243    1.0000 </r>
       <r>  -18.4655    1.0000 </r>
       <r>  -18.2264    1.0000 </r>
       <r>  -18.2254    1.0000 </r>
       <r>  -18.1589    1.0000 </r>
       <r>  -17.4440    1.0000 </r>
       <r>  -17.4431    1.0000 </r>
       <r>  -17.4392    1.0000 </r>
       <r>  -17.2664    1.0000 </r>
       <r>  -17.2638    1.0000 </r>
       <r>  -16.9953    1.0000 </r>
       <r>  -16.4837    1.0000 </r>
       <r>  -16.4807    1.0000 </r>
       <r>  -16.2009    1.0000 </r>
       <r>  -15.4815    1.0000 </r>
       <r>  -15.4797    1.0000 </r>
       <r>  -15.4194    1.0000 </r>
       <r>  -15.2540    1.0000 </r>
       <r>  -15.2517    1.0000 </r>
       <r>  -15.0231    1.0000 </r>
       <r>  -15.0059    1.0000 </r>
       <r>  -14.9976    1.0000 </r>
       <r>  -14.7762    1.0000 </r>
       <r>  -14.7706    1.0000 </r>
       <r>  -14.5561    1.0000 </r>
[...]
       <r>   -21.1459     0.0000    22.0000 </r>
       <r>   -21.0499    24.7399    24.3764 </r>
       <r>   -20.9538    24.8852    26.8906 </r>
       <r>   -20.8578     3.5866    27.8113 </r>
       <r>   -20.7617    24.0480    30.1769 </r>
       <r>   -20.6657    13.8670    31.5656 </r>
       <r>   -20.5696    41.3730    35.9742 </r>
       <r>   -20.4736     0.0000    36.0000 </r>
       <r>   -20.3775     0.0000    36.0000 </r>
       <r>   -20.2814     0.0000    36.0000 </r>
       <r>   -20.1854     0.0000    36.0000 </r>
       <r>   -20.0893     0.0000    36.0000 </r>
       <r>   -19.9933     0.0000    36.0000 </r>
       <r>   -19.8972     0.0000    36.0000 </r>
       <r>   -19.8012     0.0004    36.0000 </r>
       <r>   -19.7051    62.4625    42.0000 </r>
       <r>   -19.6090     0.0000    42.0000 </r>
       <r>   -19.5130     0.0000    42.0000 </r>
       <r>   -19.4169     0.0000    42.0000 </r>
       <r>   -19.3209     0.0000    42.0000 </r>
       <r>   -19.2248     0.0000    42.0000 </r>
       <r>   -19.1288     0.0000    42.0000 </r>
       <r>   -19.0327    62.4293    47.9968 </r>
       <r>   -18.9366     0.0000    48.0000 </r>
       <r>   -18.8406     0.0000    48.0000 </r>
       <r>   -18.7445     0.0000    48.0000 </r>
       <r>   -18.6485     0.0000    48.0000 </r>
       <r>   -18.5524     0.0013    48.0001 </r>
       <r>   -18.4564    62.2303    53.9778 </r>
       <r>   -18.3603     0.0000    54.0000 </r>
       <r>   -18.2642     0.0000    54.0000 </r>
       <r>   -18.1682    59.2616    59.6925 </r>
       <r>   -18.0721     0.0000    60.0000 </r>
       <r>   -17.9761     0.0000    60.0000 </r>
       <r>   -17.8800     0.0000    60.0000 </r>
       <r>   -17.7840     0.0000    60.0000 </r>
       <r>   -17.6879     0.0000    60.0000 </r>
       <r>   -17.5918     0.0000    60.0000 </r>
       <r>   -17.4958     0.0000    60.0000 </r>
       <r>   -17.3997    62.4630    66.0000 </r>
       <r>   -17.3037     0.0000    66.0000 </r>
       <r>   -17.2076    25.7743    68.4758 </r>
       <r>   -17.1116    22.0051    70.6811 </r>
       <r>   -17.0155     3.9008    71.7750 </r>
       <r>   -16.9194     1.0383    72.0000 </r>
       <r>   -16.8234     0.0000    72.0000 </r>
       <r>   -16.7273     0.0000    72.0000 </r>
       <r>   -16.6313     0.0000    72.0000 </r>
       <r>   -16.5352     0.0000    72.0000 </r>
       <r>   -16.4392    24.2437    74.3288 </r>
       <r>   -16.3431    15.7449    75.9124 </r>
       <r>   -16.2470    16.5382    77.5886 </r>
       <r>   -16.1510     3.4683    78.0000 </r>
       <r>   -16.0549     0.0000    78.0000 </r>
       <r>   -15.9589     0.0000    78.0000 </r>
       <r>   -15.8628     0.0000    78.0000 </r>
       <r>   -15.7668     0.0000    78.0000 </r>
       <r>   -15.6707     0.0000    78.0000 </r>
       <r>   -15.5746     0.0000    78.0000 </r>
       <r>   -15.4786    13.9088    79.3360 </r>
       <r>   -15.3825    20.8210    84.0000 </r>
       <r>   -15.2865     0.0142    84.0014 </r>
       <r>   -15.1904    41.6278    88.0000 </r>
       <r>   -15.0944    10.0414    88.9645 </r>
       <r>   -14.9983     8.4737    90.3808 </r>
       <r>   -14.9022    25.4739    94.0000 </r>
       <r>   -14.8062     3.5065    94.3368 </r>
       <r>   -14.7101     9.3568    98.0000 </r>
       <r>   -14.6141     0.0000    98.0000 </r>
       <r>   -14.5180     3.5465    98.3407 </r>
       <r>   -14.4220    15.4173    99.8978 </r>
       <r>   -14.3259    14.4726   101.5408 </r>
       <r>   -14.2299     2.5809   101.8479 </r>
       <r>   -14.1338    22.8856   104.1153 </r>
       <r>   -14.0377    22.0779   106.3542 </r>
       <r>   -13.9417    28.6838   110.3060 </r>
       <r>   -13.8456    11.0200   111.4252 </r>
       <r>   -13.7496    17.8701   113.4508 </r>
       <r>   -13.6535     4.8541   113.9999 </r>
       <r>   -13.5575     0.0000   114.0000 </r>
       <r>   -13.4614     0.0000   114.0000 </r>
       <r>   -13.3653     0.0000   114.0000 </r>
       <r>   -13.2693     0.0000   114.0000 </r>
       <r>   -13.1732     0.0000   114.0000 </r>
       <r>   -13.0772    41.5510   117.9913 </r>
       <r>   -12.9811    20.8208   120.0000 </r>
       <r>   -12.8851     0.0000   120.0000 </r>
       <r>   -12.7890     0.0742   120.0071 </r>
       <r>   -12.6929    21.2483   122.0482 </r>
       <r>   -12.5969     5.5450   124.0000 </r>
       <r>   -12.5008    26.3880   126.5347 </r>
       <r>   -12.4048    24.8869   129.6083 </r>
       <r>   -12.3087     2.9468   130.0000 </r>
       <r>   -12.2127     0.0000   130.0000 </r>
       <r>   -12.1166     0.0000   130.0000 </r>
       <r>   -12.0205    23.1115   132.2200 </r>
       <r>   -11.9245    17.0009   133.9999 </r>
       <r>   -11.8284    34.1030   137.2758 </r>
       <r>   -11.7324    31.3740   140.7142 </r>
       <r>   -11.6363    25.0700   143.6935 </r>
       <r>   -11.5403     0.0000   144.0000 </r>
       <r>   -11.4442     0.0000   144.0000 </r>
       <r>   -11.3481     0.0000   144.0000 </r>
       <r>   -11.2521     0.0022   144.0002 </r>
       <r>   -11.1560    30.6992   146.9491 </r>
       <r>   -11.0600    32.0160   150.6090 </r>
       <r>   -10.9639    49.5939   156.2832 </r>
       <r>   -10.8679    38.5444   161.7025 </r>
       <r>   -10.7718    57.6276   167.3379 </r>
       <r>   -10.6757     3.3048   168.3174 </r>
       <r>   -10.5797    16.6563   170.0000 </r>
       <r>   -10.4836    41.2499   173.9623 </r>
       <r>   -10.3876    20.7585   175.9940 </r>
       <r>   -10.2915    18.9278   177.8181 </r>
       <r>   -10.1955    19.5261   180.1806 </r>
       <r>   -10.0994    80.8803   188.2366 </r>
       <r>   -10.0033    27.6193   192.1038 </r>
       <r>    -9.9073    33.7839   195.4452 </r>
       <r>    -9.8112    17.6940   200.0000 </r>
       <r>    -9.7152    15.8040   201.5181 </r>
       <r>    -9.6191     2.8894   201.8445 </r>
       <r>    -9.5231    24.0862   204.2137 </r>
       <r>    -9.4270    22.6543   206.4761 </r>
       <r>    -9.3309    43.4696   210.7952 </r>
       <r>    -9.2349    68.8436   218.2965 </r>
       <r>    -9.1388    43.0960   224.0013 </r>
       <r>    -9.0428    20.7957   226.0000 </r>
       <r>    -8.9467     0.0000   226.0000 </r>
       <r>    -8.8507    62.4630   232.0000 </r>
       <r>    -8.7546     0.0119   232.0011 </r>
       <r>    -8.6585    62.4510   238.0000 </r>
       <r>    -8.5625     0.0000   238.0000 </r>
       <r>    -8.4664     0.0000   238.0000 </r>
       <r>    -8.3704     2.0603   238.1979 </r>
       <r>    -8.2743    47.8299   244.5944 </r>
       <r>    -8.1783    44.3330   250.2586 </r>
       <r>    -8.0822    31.2450   253.3682 </r>
       <r>    -7.9862    21.7935   258.0935 </r>
       <r>    -7.8901     4.1557   260.0000 </r>
       <r>    -7.7940     3.6985   260.3553 </r>
       <r>    -7.6980    58.2570   268.0000 </r>
       <r>    -7.6019     0.0000   268.0000 </r>
       <r>    -7.5059     0.0000   268.0000 </r>
       <r>    -7.4098     0.3669   268.0352 </r>
       <r>    -7.3138   107.1438   279.9990 </r>
       <r>    -7.2177     0.0000   280.0000 </r>
       <r>    -7.1216     0.0000   280.0000 </r>
       <r>    -7.0256     0.0000   280.0000 </r>
       <r>    -6.9295     0.0000   280.0000 </r>
       <r>    -6.8335     0.0000   280.0000 </r>
       <r>    -6.7374     0.0000   280.0000 </r>
       <r>    -6.6414     0.3654   280.0351 </r>
       <r>    -6.5453    43.3581   286.0000 </r>
       <r>    -6.4492     0.0000   286.0000 </r>
       <r>    -6.3532     0.0000   286.0000 </r>
       <r>    -6.2571     0.0000   286.0000 </r>
       <r>    -6.1611     0.0000   286.0000 </r>
       <r>    -6.0650     0.0000   286.0000 </r>
       <r>    -5.9690     7.0976   286.6818 </r>
       <r>    -5.8729     0.0449   292.0043 </r>
       <r>    -5.7768    62.4180   298.0000 </r>
       <r>    -5.6808     0.0000   298.0000 </r>
       <r>    -5.5847     0.0000   298.0000 </r>
       <r>    -5.4887     0.3473   298.0334 </r>
       <r>    -5.3926    67.8427   305.9888 </r>
       <r>    -5.2966     3.2158   306.3089 </r>
       <r>    -5.2005    32.9153   309.6456 </r>
       <r>    -5.1044    27.0966   312.3696 </r>
       <r>    -5.0084    33.8170   315.7490 </r>
       <r>    -4.9123    44.8171   320.2555 </r>
       <r>    -4.8163    23.3245   324.0000 </r>
       <r>    -4.7202     0.0000   324.0000 </r>
       <r>    -4.6242     0.0000   324.0000 </r>
       <r>    -4.5281     0.0000   324.0000 </r>
       <r>    -4.4320     0.0000   324.0000 </r>
       <r>    -4.3360     0.0000   324.0000 </r>
       <r>    -4.2399     0.0000   324.0000 </r>
       <r>    -4.1439     0.0000   324.0000 </r>
       <r>    -4.0478     0.0000   324.0000 </r>
       <r>    -3.9518     0.0000   324.0000 </r>
       <r>    -3.8557     0.0000   324.0000 </r>
       <r>    -3.7596     0.0000   324.0000 </r>
       <r>    -3.6636     0.0000   324.0000 </r>
       <r>    -3.5675     0.0000   324.0000 </r>
       <r>    -3.4715     0.0000   324.0000 </r>
       <r>    -3.3754     0.0000   324.0000 </r>
       <r>    -3.2794     0.0000   324.0000 </r>
       <r>    -3.1833     0.0000   324.0000 </r>
       <r>    -3.0872     0.0000   324.0000 </r>
       <r>    -2.9912     0.0000   324.0000 </r>
       <r>    -2.8951     0.0000   324.0000 </r>
       <r>    -2.7991     0.0000   324.0000 </r>
       <r>    -2.7030     0.0000   324.0000 </r>
       <r>    -2.6070     0.0000   324.0000 </r>
       <r>    -2.5109     0.0000   324.0000 </r>
       <r>    -2.4148     0.0000   324.0000 </r>
       <r>    -2.3188     0.0000   324.0000 </r>
       <r>    -2.2227     0.0000   324.0000 </r>
       <r>    -2.1267     0.0000   324.0000 </r>
       <r>    -2.0306     0.0000   324.0000 </r>
       <r>    -1.9346     0.0000   324.0000 </r>
       <r>    -1.8385     0.0000   324.0000 </r>
       <r>    -1.7425     0.0000   324.0000 </r>
       <r>    -1.6464    62.4630   330.0000 </r>
       <r>    -1.5503     0.0000   330.0000 </r>
       <r>    -1.4543     0.0000   330.0000 </r>
       <r>    -1.3582     0.0000   330.0000 </r>
       <r>    -1.2622     0.0000   330.0000 </r>
       <r>    -1.1661     4.6636   330.4480 </r>
       <r>    -1.0701    20.7627   336.0000 </r>
       <r>    -0.9740     0.0000   336.0000 </r>
       <r>    -0.8779     0.0000   336.0000 </r>
       <r>    -0.7819    54.8325   341.2670 </r>
       <r>    -0.6858     0.0000   342.0000 </r>
       <r>    -0.5898     0.0000   342.0000 </r>
       <r>    -0.4937     0.0000   342.0000 </r>
       <r>    -0.3977     0.0000   342.0000 </r>
       <r>    -0.3016    62.4626   348.0000 </r>
       <r>    -0.2055    26.2767   350.5241 </r>
       <r>    -0.1095    43.4535   357.3604 </r>
       <r>    -0.0134    58.2843   363.9989 </r>
       <r>     0.0826    75.7509   371.2783 </r>
       <r>     0.1787    26.0086   373.9984 </r>
       <r>     0.2747    42.0881   378.0429 </r>
       <r>     0.3708    19.6022   380.4835 </r>
       <r>     0.4669    47.3236   385.5296 </r>
       <r>     0.5629    70.4255   393.9354 </r>
       <r>     0.6590    68.7347   401.8029 </r>
       <r>     0.7550    70.7352   410.5623 </r>
       <r>     0.8511    49.6592   417.2563 </r>
       <r>     0.9471    79.6709   426.8886 </r>
       <r>     1.0432    89.3003   437.2139 </r>
       <r>     1.1393    75.9757   446.3662 </r>
       <r>     1.2353     5.0253   448.0000 </r>
       <r>     1.3314     0.0000   448.0000 </r>
       <r>     1.4274     0.0000   448.0000 </r>
       <r>     1.5235     0.0000   448.0000 </r>
       <r>     1.6195     0.0000   448.0000 </r>
       <r>     1.7156     0.0000   448.0000 </r>
       <r>     1.8117     0.0000   448.0000 </r>
       <r>     1.9077     0.0000   448.0000 </r>
       <r>     2.0038     0.0000   448.0000 </r>
       <r>     2.0998     0.0000   448.0000 </r>
       <r>     2.1959     0.0000   448.0000 </r>
       <r>     2.2919     0.0000   448.0000 </r>
       <r>     2.3880     0.0000   448.0000 </r>
       <r>     2.4841     0.0000   448.0000 </r>
      </set>
     </set>
    </array>
   </total>
  </dos>
 </calculation>
 <structure name="finalpos" >
  <crystal>
   <varray name="basis" >
    <v>      29.15653671      -0.06521430       0.00000000 </v>
    <v>     -14.63461730      25.19174831       0.00000000 </v>
    <v>       0.00000000       0.00000000      20.00000000 </v>
   </varray>
   <i name="volume">  14670.99496031 </i>
   <varray name="rec_basis" >
    <v>       0.03434225       0.01995041       0.00000000 </v>
    <v>       0.00008890       0.03974718       0.00000000 </v>
    <v>       0.00000000       0.00000000       0.05000000 </v>
   </varray>
  </crystal>
  <varray name="positions" >
   <v>       0.38879766       0.69052521       0.49454474 </v>
   <v>       0.30346968       0.61005090       0.49438896 </v>
   <v>       0.30869076       0.69526268       0.49393458 </v>
   <v>       0.38125108       0.60773901       0.49486350 </v>
   <v>       0.22815012       0.61742288       0.49358515 </v>
   <v>       0.39173172       0.77094882       0.49451645 </v>
   <v>       0.61167627       0.30337859       0.51072479 </v>
   <v>       0.69210556       0.38883547       0.51187955 </v>
   <v>       0.69683397       0.30863992       0.51167911 </v>
   <v>       0.61010598       0.38196300       0.51169985 </v>
   <v>       0.77244797       0.39082789       0.51264982 </v>
   <v>       0.61823749       0.22800315       0.51099361 </v>
   <v>       0.35708944       0.56803847       0.48883859 </v>
   <v>       0.21299275       0.64172410       0.48749966 </v>
   <v>       0.43133709       0.78637073       0.48835243 </v>
   <v>       0.63143312       0.42169088       0.52000338 </v>
   <v>       0.79078083       0.36954376       0.52028683 </v>
   <v>       0.57837413       0.20912719       0.51780701 </v>
   <v>       0.40087201       0.88198553       0.39069456 </v>
   <v>       0.56410370       0.14580226       0.42735939 </v>
   <v>       0.44963992       0.03922567       0.42934787 </v>
   <v>       0.49695753       0.07101401       0.36492341 </v>
   <v>       0.44070317       0.97125736       0.34690704 </v>
   <v>       0.50904714       0.99261006       0.35508970 </v>
   <v>       0.66741183       0.20683287       0.56454085 </v>
   <v>       0.67562139       0.21095481       0.47708584 </v>
   <v>       0.11660873       0.51685214       0.39091478 </v>
   <v>       0.85380480       0.41913540       0.42840892 </v>
   <v>       0.95869854       0.40938073       0.42868985 </v>
   <v>       0.92778813       0.42649503       0.36506923 </v>
   <v>       0.02730749       0.46896875       0.34690036 </v>
   <v>       0.00747782       0.51688348       0.35654712 </v>
   <v>       0.79450996       0.46121401       0.56728112 </v>
   <v>       0.79028297       0.46593925       0.47992025 </v>
   <v>       0.48468639       0.60055246       0.39332157 </v>
   <v>       0.58367405       0.43717768       0.42964257 </v>
   <v>       0.59267159       0.55192858       0.43351498 </v>
   <v>       0.57783905       0.50543205       0.36829055 </v>
   <v>       0.53484369       0.56169355       0.35012443 </v>
   <v>       0.48728193       0.49315769       0.35680004 </v>
   <v>       0.53933701       0.33255279       0.56522127 </v>
   <v>       0.53523336       0.32468678       0.47766910 </v>
   <v>       0.57721230       0.02198065       0.58580460 </v>
   <v>       0.64069547       0.11820617       0.59382132 </v>
   <v>       0.43235228       0.85752404       0.59382551 </v>
   <v>       0.50089708       0.95228941       0.60229625 </v>
   <v>       0.33889431       0.79520122       0.52522427 </v>
   <v>       0.34845662       0.79771077       0.43795152 </v>
   <v>       0.97943348       0.55420568       0.58828005 </v>
   <v>       0.88366282       0.52255745       0.59673763 </v>
   <v>       0.14198040       0.57044333       0.59519062 </v>
   <v>       0.04786068       0.54566275       0.60405296 </v>
   <v>       0.20347403       0.54036657       0.52597358 </v>
   <v>       0.20035620       0.54629398       0.43853354 </v>
   <v>       0.44510209       0.42246509       0.58638917 </v>
   <v>       0.47698652       0.35871500       0.59394427 </v>
   <v>       0.42638869       0.56709435       0.59545109 </v>
   <v>       0.45231069       0.49872966       0.60379418 </v>
   <v>       0.45800746       0.66074687       0.52805145 </v>
   <v>       0.45255364       0.65230282       0.44052128 </v>
   <v>       0.36165723       0.71699973       0.49441253 </v>
   <v>       0.35730642       0.63747736       0.49469514 </v>
   <v>       0.28201098       0.64139232       0.49407410 </v>
   <v>       0.64358417       0.28196105       0.51100486 </v>
   <v>       0.63854887       0.35668116       0.51130773 </v>
   <v>       0.71850528       0.36218887       0.51193033 </v>
   <v>       0.46216652       0.95118864       0.44085368 </v>
   <v>       0.42329275       0.89743974       0.43713676 </v>
   <v>       0.60647922       0.13902789       0.51183579 </v>
   <v>       0.56659157       0.11862344       0.46291801 </v>
   <v>       0.52965463       0.06439817       0.45848430 </v>
   <v>       0.48599367       0.04294023       0.40681098 </v>
   <v>       0.47407622       0.98821316       0.38236371 </v>
   <v>       0.64539356       0.19790140       0.51692510 </v>
   <v>       0.04812630       0.50954085       0.44164748 </v>
   <v>       0.10149623       0.52361395       0.43770016 </v>
   <v>       0.86174153       0.46794348       0.51386701 </v>
   <v>       0.88138684       0.44841016       0.46424008 </v>
   <v>       0.93532027       0.46508756       0.45950222 </v>
   <v>       0.95590971       0.44280242       0.40702118 </v>
   <v>       0.01099713       0.48548099       0.38297549 </v>
   <v>       0.80307586       0.44829865       0.51931960 </v>
   <v>       0.49188626       0.53900617       0.44314837 </v>
   <v>       0.47712805       0.57771854       0.43949297 </v>
   <v>       0.53318238       0.39382070       0.51298357 </v>
   <v>       0.55364689       0.43433070       0.46483990 </v>
   <v>       0.53688554       0.47143755       0.46074363 </v>
   <v>       0.56014903       0.51578749       0.40997599 </v>
   <v>       0.51772903       0.52786196       0.38493833 </v>
   <v>       0.55265157       0.35476001       0.51770247 </v>
   <v>       0.41201961       0.86299707       0.49131821 </v>
   <v>       0.44097858       0.88356528       0.55062928 </v>
   <v>       0.47991301       0.93697971       0.55507059 </v>
   <v>       0.49147896       0.97166369       0.50055760 </v>
   <v>       0.53227145       0.02858429       0.50399950 </v>
   <v>       0.57337385       0.04896704       0.55150098 </v>
   <v>       0.60958547       0.10328070       0.55578016 </v>
   <v>       0.36931015       0.80534371       0.48630618 </v>
   <v>       0.13598392       0.54573321       0.49209060 </v>
   <v>       0.11588487       0.55386135       0.55186069 </v>
   <v>       0.06286343       0.54020734       0.55653093 </v>
   <v>       0.02814141       0.51818184       0.50179851 </v>
   <v>       0.97161091       0.50290751       0.50547393 </v>
   <v>       0.95203032       0.52378105       0.55363917 </v>
   <v>       0.89798621       0.50630581       0.55818018 </v>
   <v>       0.19332076       0.56026312       0.48665603 </v>
   <v>       0.45334741       0.58833662       0.49341906 </v>
   <v>       0.44424301       0.55892544       0.55243683 </v>
   <v>       0.45856014       0.52011274       0.55680422 </v>
   <v>       0.48222272       0.50914932       0.50250427 </v>
   <v>       0.49795766       0.46832402       0.50575013 </v>
   <v>       0.47628791       0.42664166       0.55247999 </v>
   <v>       0.49390364       0.39028260       0.55648889 </v>
   <v>       0.43842729       0.63077813       0.48836581 </v>
  </varray>
 </structure>
</modeling>
