<?xml version="1.0" encoding="ISO-8859-1"?>
<modeling>
 <generator>
  <i name="program" type="string">vasp </i>
  <i name="version" type="string">5.4.4.18Apr17-6-g9f103f2a35  </i>
  <i name="subversion" type="string">(build Jun 07 2020 16:50:00) complex            parallel </i>
  <i name="platform" type="string">LinuxIFC </i>
  <i name="date" type="string">2023 02 15 </i>
  <i name="time" type="string">21:38:30 </i>
 </generator>
 <incar>
  <i type="string" name="SYSTEM">Simulation for cell shape cell volume r</i>
  <i type="int" name="ISTART">     1</i>
  <i type="string" name="PREC">high</i>
  <i type="string" name="ALGO">48</i>
  <i type="int" name="ICHARG">    11</i>
  <i type="int" name="NELM">   200</i>
  <i type="int" name="IBRION">    -1</i>
  <i name="EDIFF">      0.00001000</i>
  <i name="EDIFFG">     -0.01000000</i>
  <i type="int" name="NSW">     0</i>
  <i type="int" name="ISIF">     2</i>
  <i name="ENCUT">    500.00000000</i>
  <i name="POTIM">      0.30000000</i>
  <i type="string" name="LREAL">A</i>
  <i type="int" name="ISMEAR">     0</i>
  <i name="SIGMA">      0.01000000</i>
  <i type="int" name="NWRITE">     0</i>
  <i type="logical" name="LWAVE"> F  </i>
  <i type="logical" name="LCHARG"> F  </i>
  <v type="int" name="KPOINT_BSE">    -1     0     0     0</v>
  <i type="int" name="NELM">   200</i>
  <i type="string" name="GGA">PE</i>
 </incar>
 <structure name="primitive_cell" >
  <crystal>
   <varray name="basis" >
    <v>      14.88346325       0.00000000       0.00000000 </v>
    <v>      -7.44173163      12.88945727       0.00000000 </v>
    <v>       0.00000000       0.00000000      20.00000000 </v>
   </varray>
   <i name="volume">   3836.79527424 </i>
   <varray name="rec_basis" >
    <v>       0.06718866       0.03879139       0.00000000 </v>
    <v>       0.00000000       0.07758279       0.00000000 </v>
    <v>       0.00000000       0.00000000       0.05000000 </v>
   </varray>
  </crystal>
  <varray name="positions" >
   <v>       0.42608641       0.27251478       0.33087228 </v>
   <v>       0.44536171       0.22268086       0.36114987 </v>
   <v>       0.42608641       0.15357163       0.33087228 </v>
   <v>      -0.47051600       0.26474200       0.36889079 </v>
   <v>       0.38709193       0.19354596       0.42678767 </v>
   <v>       0.26415111       0.13207556       0.31875482 </v>
   <v>       0.27782466       0.13891233       0.42747628 </v>
   <v>       0.21532790       0.10766395       0.36352163 </v>
   <v>       0.44149033       0.22074516       0.48810552 </v>
   <v>       0.16407964       0.14108965       0.36090941 </v>
   <v>      -0.44262466       0.27868767       0.48784805 </v>
   <v>       0.16407964       0.02299000       0.36090941 </v>
   <v>      -0.42975470       0.42975470       0.48784137 </v>
   <v>      -0.38739553       0.38739553       0.48784001 </v>
   <v>      -0.26474200       0.47051600       0.36889079 </v>
   <v>       0.22495423       0.11247712       0.48921269 </v>
   <v>      -0.38739553       0.22520894       0.48784001 </v>
   <v>      -0.27251478      -0.42608641       0.33087228 </v>
   <v>       0.38849287       0.19424644      -0.45030989 </v>
   <v>      -0.26474200       0.26474200       0.36889079 </v>
   <v>      -0.42975470       0.14049061       0.48784137 </v>
   <v>      -0.22268086      -0.44536171       0.36114987 </v>
   <v>       0.27905426       0.13952713      -0.44974184 </v>
   <v>      -0.27868767       0.44262466       0.48784805 </v>
   <v>       0.10922598       0.05461299       0.48893618 </v>
   <v>      -0.27868767       0.27868767       0.48784805 </v>
   <v>       0.09642346       0.19284692       0.48938308 </v>
   <v>      -0.22520894       0.38739553       0.48784001 </v>
   <v>      -0.15357163      -0.42608641       0.33087228 </v>
   <v>      -0.27251478       0.15357163       0.33087228 </v>
   <v>      -0.22268086       0.22268086       0.36114987 </v>
   <v>      -0.19354596      -0.38709193       0.42678767 </v>
   <v>       0.05405088       0.10810176       0.48883333 </v>
   <v>       0.44629488       0.22314744      -0.38470483 </v>
   <v>      -0.22074516      -0.44149033       0.48810552 </v>
   <v>      -0.46949457       0.26525271      -0.39190512 </v>
   <v>      -0.02299000       0.14108965       0.36090941 </v>
   <v>       0.09642346      -0.09642346       0.48938308 </v>
   <v>       0.05405088      -0.05405088       0.48883333 </v>
   <v>      -0.15357163       0.27251478       0.33087228 </v>
   <v>       0.42608094       0.27231834      -0.35439997 </v>
   <v>       0.22212582       0.11106291      -0.38382189 </v>
   <v>      -0.14049061       0.42975470       0.48784137 </v>
   <v>      -0.22074516       0.22074516       0.48810552 </v>
   <v>       0.42608094       0.15376259      -0.35439997 </v>
   <v>      -0.19354596       0.19354596       0.42678767 </v>
   <v>      -0.02299000      -0.16407964       0.36090941 </v>
   <v>       0.24255373       0.18055269      -0.35357901 </v>
   <v>      -0.13207556      -0.26415111       0.31875482 </v>
   <v>       0.13780887       0.06890444      -0.39069345 </v>
   <v>      -0.26525271       0.46949457      -0.39190512 </v>
   <v>      -0.13891233      -0.27782466       0.42747628 </v>
   <v>      -0.19424644      -0.38849287      -0.45030989 </v>
   <v>      -0.05461299       0.05461299       0.48893618 </v>
   <v>       0.24255373       0.06200104      -0.35357901 </v>
   <v>      -0.10766395       0.10766395       0.36352163 </v>
   <v>      -0.26525271       0.26525271      -0.39190512 </v>
   <v>      -0.05461299      -0.10922598       0.48893618 </v>
   <v>      -0.10766395      -0.21532790       0.36352163 </v>
   <v>      -0.14108965       0.02299000       0.36090941 </v>
   <v>      -0.22314744      -0.44629488      -0.38470483 </v>
   <v>      -0.13207556       0.13207556       0.31875482 </v>
   <v>      -0.14108965      -0.16407964       0.36090941 </v>
   <v>      -0.10810176      -0.05405088       0.48883333 </v>
   <v>      -0.19424644       0.19424644      -0.45030989 </v>
   <v>      -0.27231834      -0.42608094      -0.35439997 </v>
   <v>      -0.11247712       0.11247712       0.48921269 </v>
   <v>      -0.13891233       0.13891233       0.42747628 </v>
   <v>      -0.11247712      -0.22495423       0.48921269 </v>
   <v>      -0.13952713      -0.27905426      -0.44974184 </v>
   <v>      -0.22314744       0.22314744      -0.38470483 </v>
   <v>      -0.15376259      -0.42608094      -0.35439997 </v>
   <v>      -0.27231834       0.15376259      -0.35439997 </v>
   <v>      -0.06890444       0.06890444      -0.39069345 </v>
   <v>      -0.19284692      -0.09642346       0.48938308 </v>
   <v>      -0.13952713       0.13952713      -0.44974184 </v>
   <v>      -0.06890444      -0.13780887      -0.39069345 </v>
   <v>      -0.15376259       0.27231834      -0.35439997 </v>
   <v>      -0.11106291       0.11106291      -0.38382189 </v>
   <v>      -0.18055269      -0.24255373      -0.35357901 </v>
   <v>      -0.06200104       0.18055269      -0.35357901 </v>
   <v>      -0.11106291      -0.22212582      -0.38382189 </v>
   <v>      -0.06200104      -0.24255373      -0.35357901 </v>
   <v>      -0.18055269       0.06200104      -0.35357901 </v>
  </varray>
 </structure>
 <varray name="primitive_index" >
  <v type="int" >        1 </v>
  <v type="int" >       45 </v>
  <v type="int" >        2 </v>
  <v type="int" >        7 </v>
  <v type="int" >       44 </v>
  <v type="int" >       29 </v>
  <v type="int" >       72 </v>
  <v type="int" >       74 </v>
  <v type="int" >       43 </v>
  <v type="int" >       30 </v>
  <v type="int" >       48 </v>
  <v type="int" >       31 </v>
  <v type="int" >        5 </v>
  <v type="int" >       50 </v>
  <v type="int" >        9 </v>
  <v type="int" >       73 </v>
  <v type="int" >       49 </v>
  <v type="int" >       10 </v>
  <v type="int" >       46 </v>
  <v type="int" >       11 </v>
  <v type="int" >        6 </v>
  <v type="int" >       65 </v>
  <v type="int" >       83 </v>
  <v type="int" >       52 </v>
  <v type="int" >       54 </v>
  <v type="int" >       51 </v>
  <v type="int" >       20 </v>
  <v type="int" >       53 </v>
  <v type="int" >       24 </v>
  <v type="int" >       12 </v>
  <v type="int" >       71 </v>
  <v type="int" >       61 </v>
  <v type="int" >       55 </v>
  <v type="int" >       47 </v>
  <v type="int" >       60 </v>
  <v type="int" >        8 </v>
  <v type="int" >       27 </v>
  <v type="int" >       19 </v>
  <v type="int" >       59 </v>
  <v type="int" >       28 </v>
  <v type="int" >        4 </v>
  <v type="int" >       84 </v>
  <v type="int" >       17 </v>
  <v type="int" >       66 </v>
  <v type="int" >        3 </v>
  <v type="int" >       67 </v>
  <v type="int" >       22 </v>
  <v type="int" >       41 </v>
  <v type="int" >       21 </v>
  <v type="int" >       40 </v>
  <v type="int" >       13 </v>
  <v type="int" >       62 </v>
  <v type="int" >       76 </v>
  <v type="int" >       56 </v>
  <v type="int" >       42 </v>
  <v type="int" >       70 </v>
  <v type="int" >       15 </v>
  <v type="int" >       58 </v>
  <v type="int" >       64 </v>
  <v type="int" >       26 </v>
  <v type="int" >       78 </v>
  <v type="int" >       25 </v>
  <v type="int" >       23 </v>
  <v type="int" >       57 </v>
  <v type="int" >       80 </v>
  <v type="int" >       14 </v>
  <v type="int" >       69 </v>
  <v type="int" >       68 </v>
  <v type="int" >       63 </v>
  <v type="int" >       75 </v>
  <v type="int" >       82 </v>
  <v type="int" >       35 </v>
  <v type="int" >       16 </v>
  <v type="int" >       36 </v>
  <v type="int" >       18 </v>
  <v type="int" >       79 </v>
  <v type="int" >       32 </v>
  <v type="int" >       39 </v>
  <v type="int" >       81 </v>
  <v type="int" >       34 </v>
  <v type="int" >       38 </v>
  <v type="int" >       77 </v>
  <v type="int" >       33 </v>
  <v type="int" >       37 </v>
 </varray>
 <kpoints>
  <generation param="listgenerated">
   <i name="divisions" type="int">      20 </i>
   <v>       0.00000000       0.00000000       0.00000000 </v>
   <v>       0.50000000       0.00000000       0.00000000 </v>
   <v>       0.33333333       0.33333333       0.00000000 </v>
   <v>       0.00000000       0.00000000       0.00000000 </v>
  </generation>
  <varray name="kpointlist" >
   <v>       0.00000000       0.00000000       0.00000000 </v>
   <v>       0.02631579       0.00000000       0.00000000 </v>
   <v>       0.05263158       0.00000000       0.00000000 </v>
   <v>       0.07894737       0.00000000       0.00000000 </v>
   <v>       0.10526316       0.00000000       0.00000000 </v>
   <v>       0.13157895       0.00000000       0.00000000 </v>
   <v>       0.15789474       0.00000000       0.00000000 </v>
   <v>       0.18421053       0.00000000       0.00000000 </v>
   <v>       0.21052632       0.00000000       0.00000000 </v>
   <v>       0.23684211       0.00000000       0.00000000 </v>
   <v>       0.26315789       0.00000000       0.00000000 </v>
   <v>       0.28947368       0.00000000       0.00000000 </v>
   <v>       0.31578947       0.00000000       0.00000000 </v>
   <v>       0.34210526       0.00000000       0.00000000 </v>
   <v>       0.36842105       0.00000000       0.00000000 </v>
   <v>       0.39473684       0.00000000       0.00000000 </v>
   <v>       0.42105263       0.00000000       0.00000000 </v>
   <v>       0.44736842       0.00000000       0.00000000 </v>
   <v>       0.47368421       0.00000000       0.00000000 </v>
   <v>       0.50000000       0.00000000       0.00000000 </v>
   <v>       0.50000000       0.00000000       0.00000000 </v>
   <v>       0.49122807       0.01754386       0.00000000 </v>
   <v>       0.48245614       0.03508772       0.00000000 </v>
   <v>       0.47368421       0.05263158       0.00000000 </v>
   <v>       0.46491228       0.07017544       0.00000000 </v>
   <v>       0.45614035       0.08771930       0.00000000 </v>
   <v>       0.44736842       0.10526316       0.00000000 </v>
   <v>       0.43859649       0.12280702       0.00000000 </v>
   <v>       0.42982456       0.14035088       0.00000000 </v>
   <v>       0.42105263       0.15789474       0.00000000 </v>
   <v>       0.41228070       0.17543860       0.00000000 </v>
   <v>       0.40350877       0.19298246       0.00000000 </v>
   <v>       0.39473684       0.21052632       0.00000000 </v>
   <v>       0.38596491       0.22807018       0.00000000 </v>
   <v>       0.37719298       0.24561404       0.00000000 </v>
   <v>       0.36842105       0.26315789       0.00000000 </v>
   <v>       0.35964912       0.28070175       0.00000000 </v>
   <v>       0.35087719       0.29824561       0.00000000 </v>
   <v>       0.34210526       0.31578947       0.00000000 </v>
   <v>       0.33333333       0.33333333       0.00000000 </v>
   <v>       0.33333333       0.33333333       0.00000000 </v>
   <v>       0.31578947       0.31578947       0.00000000 </v>
   <v>       0.29824561       0.29824561       0.00000000 </v>
   <v>       0.28070175       0.28070175       0.00000000 </v>
   <v>       0.26315789       0.26315789       0.00000000 </v>
   <v>       0.24561404       0.24561404       0.00000000 </v>
   <v>       0.22807018       0.22807018       0.00000000 </v>
   <v>       0.21052632       0.21052632       0.00000000 </v>
   <v>       0.19298246       0.19298246       0.00000000 </v>
   <v>       0.17543860       0.17543860       0.00000000 </v>
   <v>       0.15789474       0.15789474       0.00000000 </v>
   <v>       0.14035088       0.14035088       0.00000000 </v>
   <v>       0.12280702       0.12280702       0.00000000 </v>
   <v>       0.10526316       0.10526316       0.00000000 </v>
   <v>       0.08771930       0.08771930       0.00000000 </v>
   <v>       0.07017544       0.07017544       0.00000000 </v>
   <v>       0.05263158       0.05263158       0.00000000 </v>
   <v>       0.03508772       0.03508772       0.00000000 </v>
   <v>       0.01754386       0.01754386       0.00000000 </v>
   <v>       0.00000000       0.00000000       0.00000000 </v>
  </varray>
  <varray name="weights" >
   <v>       0.01666667 </v>
   <v>       0.01666667 </v>
   <v>       0.01666667 </v>
   <v>       0.01666667 </v>
   <v>       0.01666667 </v>
   <v>       0.01666667 </v>
   <v>       0.01666667 </v>
   <v>       0.01666667 </v>
   <v>       0.01666667 </v>
   <v>       0.01666667 </v>
   <v>       0.01666667 </v>
   <v>       0.01666667 </v>
   <v>       0.01666667 </v>
   <v>       0.01666667 </v>
   <v>       0.01666667 </v>
   <v>       0.01666667 </v>
   <v>       0.01666667 </v>
   <v>       0.01666667 </v>
   <v>       0.01666667 </v>
   <v>       0.01666667 </v>
   <v>       0.01666667 </v>
   <v>       0.01666667 </v>
   <v>       0.01666667 </v>
   <v>       0.01666667 </v>
   <v>       0.01666667 </v>
   <v>       0.01666667 </v>
   <v>       0.01666667 </v>
   <v>       0.01666667 </v>
   <v>       0.01666667 </v>
   <v>       0.01666667 </v>
   <v>       0.01666667 </v>
   <v>       0.01666667 </v>
   <v>       0.01666667 </v>
   <v>       0.01666667 </v>
   <v>       0.01666667 </v>
   <v>       0.01666667 </v>
   <v>       0.01666667 </v>
   <v>       0.01666667 </v>
   <v>       0.01666667 </v>
   <v>       0.01666667 </v>
   <v>       0.01666667 </v>
   <v>       0.01666667 </v>
   <v>       0.01666667 </v>
   <v>       0.01666667 </v>
   <v>       0.01666667 </v>
   <v>       0.01666667 </v>
   <v>       0.01666667 </v>
   <v>       0.01666667 </v>
   <v>       0.01666667 </v>
   <v>       0.01666667 </v>
   <v>       0.01666667 </v>
   <v>       0.01666667 </v>
   <v>       0.01666667 </v>
   <v>       0.01666667 </v>
   <v>       0.01666667 </v>
   <v>       0.01666667 </v>
   <v>       0.01666667 </v>
   <v>       0.01666667 </v>
   <v>       0.01666667 </v>
   <v>       0.01666667 </v>
  </varray>
 </kpoints>
 <parameters>
  <separator name="general" >
   <i type="string" name="SYSTEM">Simulation for cell shape cell volume r</i>
   <i type="logical" name="LCOMPAT"> F  </i>
  </separator>
  <separator name="electronic" >
   <i type="string" name="PREC">high</i>
   <i name="ENMAX">    500.00000000</i>
   <i name="ENAUG">    644.87300000</i>
   <i name="EDIFF">      0.00001000</i>
   <i type="int" name="IALGO">    38</i>
   <i type="int" name="IWAVPR">    10</i>
   <i type="int" name="NBANDS">   160</i>
   <i name="NELECT">    210.00000000</i>
   <i type="int" name="TURBO">     0</i>
   <i type="int" name="IRESTART">     0</i>
   <i type="int" name="NREBOOT">     0</i>
   <i type="int" name="NMIN">     0</i>
   <i name="EREF">      0.00000000</i>
   <separator name="electronic smearing" >
    <i type="int" name="ISMEAR">     0</i>
    <i name="SIGMA">      0.01000000</i>
    <i name="KSPACING">      0.50000000</i>
    <i type="logical" name="KGAMMA"> T  </i>
   </separator>
   <separator name="electronic projectors" >
    <i type="logical" name="LREAL"> T  </i>
    <v name="ROPT">     -0.00040000     -0.00040000</v>
    <i type="int" name="LMAXPAW">  -100</i>
    <i type="int" name="LMAXMIX">     2</i>
    <i type="logical" name="NLSPLINE"> F  </i>
   </separator>
   <separator name="electronic startup" >
    <i type="int" name="ISTART">     1</i>
    <i type="int" name="ICHARG">    11</i>
    <i type="int" name="INIWAV">     1</i>
   </separator>
   <separator name="electronic spin" >
    <i type="int" name="ISPIN">     1</i>
    <i type="logical" name="LNONCOLLINEAR"> F  </i>
    <v name="MAGMOM">      1.00000000      1.00000000      1.00000000      1.00000000      1.00000000      1.00000000      1.00000000      1.00000000      1.00000000      1.00000000      1.00000000      1.00000000      1.00000000      1.00000000      1.00000000      1.00000000      1.00000000      1.00000000      1.00000000      1.00000000
      1.00000000      1.00000000      1.00000000      1.00000000      1.00000000      1.00000000      1.00000000      1.00000000      1.00000000      1.00000000      1.00000000      1.00000000      1.00000000      1.00000000      1.00000000      1.00000000      1.00000000      1.00000000      1.00000000      1.00000000
      1.00000000      1.00000000      1.00000000      1.00000000      1.00000000      1.00000000      1.00000000      1.00000000      1.00000000      1.00000000      1.00000000      1.00000000      1.00000000      1.00000000      1.00000000      1.00000000      1.00000000      1.00000000      1.00000000      1.00000000
      1.00000000      1.00000000      1.00000000      1.00000000      1.00000000      1.00000000      1.00000000      1.00000000      1.00000000      1.00000000      1.00000000      1.00000000      1.00000000      1.00000000      1.00000000      1.00000000      1.00000000      1.00000000      1.00000000      1.00000000
      1.00000000      1.00000000      1.00000000      1.00000000</v>
    <i name="NUPDOWN">     -1.00000000</i>
    <i type="logical" name="LSORBIT"> F  </i>
    <v name="SAXIS">      0.00000000      0.00000000      1.00000000</v>
    <i type="logical" name="LSPIRAL"> F  </i>
    <v name="QSPIRAL">      0.00000000      0.00000000      0.00000000</v>
    <i type="logical" name="LZEROZ"> F  </i>
   </separator>
   <separator name="electronic exchange-correlation" >
    <i type="logical" name="LASPH"> F  </i>
    <i type="logical" name="LMETAGGA"> F  </i>
   </separator>
   <separator name="electronic convergence" >
    <i type="int" name="NELM">   200</i>
    <i type="int" name="NELMDL">     0</i>
    <i type="int" name="NELMIN">     2</i>
    <i name="ENINI">    500.00000000</i>
    <separator name="electronic convergence detail" >
     <i type="logical" name="LDIAG"> T  </i>
     <i type="logical" name="LSUBROT"> F  </i>
     <i name="WEIMIN">      0.00000000</i>
     <i name="EBREAK">      0.00000002</i>
     <i name="DEPER">      0.30000000</i>
     <i type="int" name="NRMM">     4</i>
     <i name="TIME">      0.40000000</i>
    </separator>
   </separator>
   <separator name="electronic mixer" >
    <i name="AMIX">      0.40000000</i>
    <i name="BMIX">      1.00000000</i>
    <i name="AMIN">      0.10000000</i>
    <i name="AMIX_MAG">      1.60000000</i>
    <i name="BMIX_MAG">      1.00000000</i>
    <separator name="electronic mixer details" >
     <i type="int" name="IMIX">     4</i>
     <i type="logical" name="MIXFIRST"> F  </i>
     <i type="int" name="MAXMIX">   -45</i>
     <i name="WC">    100.00000000</i>
     <i type="int" name="INIMIX">     1</i>
     <i type="int" name="MIXPRE">     1</i>
     <i type="int" name="MREMOVE">     5</i>
    </separator>
   </separator>
   <separator name="electronic dipolcorrection" >
    <i type="logical" name="LDIPOL"> F  </i>
    <i type="logical" name="LMONO"> F  </i>
    <i type="int" name="IDIPOL">     0</i>
    <i name="EPSILON">      1.00000000</i>
    <v name="DIPOL">   -100.00000000   -100.00000000   -100.00000000</v>
    <i name="EFIELD">      0.00000000</i>
   </separator>
  </separator>
  <separator name="grids" >
   <i type="int" name="NGX">   112</i>
   <i type="int" name="NGY">   112</i>
   <i type="int" name="NGZ">   150</i>
   <i type="int" name="NGXF">   168</i>
   <i type="int" name="NGYF">   168</i>
   <i type="int" name="NGZF">   224</i>
   <i type="logical" name="ADDGRID"> F  </i>
  </separator>
  <separator name="ionic" >
   <i type="int" name="NSW">     0</i>
   <i type="int" name="IBRION">    -1</i>
   <i type="int" name="MDALGO">     0</i>
   <i type="int" name="ISIF">     2</i>
   <i name="PSTRESS">      0.00000000</i>
   <i name="EDIFFG">     -0.01000000</i>
   <i type="int" name="NFREE">     0</i>
   <i name="POTIM">      0.30000000</i>
   <i name="SMASS">     -3.00000000</i>
   <i name="SCALEE">      1.00000000</i>
  </separator>
  <separator name="ionic md" >
   <i name="TEBEG">      0.00010000</i>
   <i name="TEEND">      0.00010000</i>
   <i type="int" name="NBLOCK">     1</i>
   <i type="int" name="KBLOCK">     1</i>
   <i type="int" name="NPACO">   256</i>
   <i name="APACO">     16.00000000</i>
  </separator>
  <separator name="symmetry" >
   <i type="int" name="ISYM">     2</i>
   <i name="SYMPREC">      0.00001000</i>
  </separator>
  <separator name="dos" >
   <i type="int" name="LORBIT">     0</i>
   <v name="RWIGS">     -1.00000000     -1.00000000</v>
   <i type="int" name="NEDOS">   301</i>
   <i name="EMIN">     10.00000000</i>
   <i name="EMAX">    -10.00000000</i>
   <i name="EFERMI">      0.00000000</i>
  </separator>
  <separator name="writing" >
   <i type="int" name="NWRITE">     0</i>
   <i type="logical" name="LWAVE"> F  </i>
   <i type="logical" name="LDOWNSAMPLE"> F  </i>
   <i type="logical" name="LCHARG"> F  </i>
   <i type="logical" name="LPARD"> F  </i>
   <i type="logical" name="LVTOT"> F  </i>
   <i type="logical" name="LVHAR"> F  </i>
   <i type="logical" name="LELF"> F  </i>
   <i type="logical" name="LOPTICS"> F  </i>
   <v name="STM">      0.00000000      0.00000000      0.00000000      0.00000000      0.00000000      0.00000000      0.00000000</v>
  </separator>
  <separator name="performance" >
   <i type="int" name="NPAR">    16</i>
   <i type="int" name="NSIM">     4</i>
   <i type="int" name="NBLK">    -1</i>
   <i type="logical" name="LPLANE"> T  </i>
   <i type="logical" name="LSCALAPACK"> T  </i>
   <i type="logical" name="LSCAAWARE"> F  </i>
   <i type="logical" name="LSCALU"> F  </i>
   <i type="logical" name="LASYNC"> F  </i>
   <i type="logical" name="LORBITALREAL"> F  </i>
  </separator>
  <separator name="miscellaneous" >
   <i type="int" name="IDIOT">     3</i>
   <i type="int" name="ISPECIAL">     0</i>
   <i type="logical" name="LMUSIC"> F  </i>
   <v name="POMASS">      1.00000000     12.01100000</v>
   <v name="DARWINR">      0.00000000      0.00000000</v>
   <v name="DARWINV">      1.00000000      1.00000000</v>
   <i type="logical" name="LCORR"> T  </i>
  </separator>
  <i type="logical" name="GGA_COMPAT"> T  </i>
  <i type="logical" name="LBERRY"> F  </i>
  <i type="int" name="ICORELEVEL">     0</i>
  <i type="logical" name="LDAU"> F  </i>
  <i type="int" name="I_CONSTRAINED_M">     0</i>
  <separator name="electronic exchange-correlation" >
   <i type="string" name="GGA">PE</i>
   <i type="int" name="VOSKOWN">     0</i>
   <i type="logical" name="LHFCALC"> F  </i>
   <i type="string" name="PRECFOCK"></i>
   <i type="logical" name="LSYMGRAD"> F  </i>
   <i type="logical" name="LHFONE"> F  </i>
   <i type="logical" name="LRHFCALC"> F  </i>
   <i type="logical" name="LTHOMAS"> F  </i>
   <i type="logical" name="LMODELHF"> F  </i>
   <i name="ENCUT4O">     -1.00000000</i>
   <i type="int" name="EXXOEP">     0</i>
   <i type="int" name="FOURORBIT">     0</i>
   <i name="AEXX">      0.00000000</i>
   <i name="HFALPHA">      0.00000000</i>
   <i name="MCALPHA">      0.00000000</i>
   <i name="ALDAX">      1.00000000</i>
   <i name="AGGAX">      1.00000000</i>
   <i name="ALDAC">      1.00000000</i>
   <i name="AGGAC">      1.00000000</i>
   <i type="int" name="NKREDX">     1</i>
   <i type="int" name="NKREDY">     1</i>
   <i type="int" name="NKREDZ">     1</i>
   <i type="logical" name="SHIFTRED"> F  </i>
   <i type="logical" name="ODDONLY"> F  </i>
   <i type="logical" name="EVENONLY"> F  </i>
   <i type="int" name="LMAXFOCK">     0</i>
   <i type="int" name="NMAXFOCKAE">     0</i>
   <i type="logical" name="LFOCKAEDFT"> F  </i>
   <i name="HFSCREEN">      0.00000000</i>
   <i name="HFSCREENC">      0.00000000</i>
   <i type="int" name="NBANDSGWLOW">     0</i>
  </separator>
  <separator name="vdW DFT" >
   <i type="logical" name="LUSE_VDW"> F  </i>
   <i name="Zab_VDW">     -0.84910000</i>
   <i name="PARAM1">      0.12340000</i>
   <i name="PARAM2">      1.00000000</i>
   <i name="PARAM3">      0.00000000</i>
  </separator>
  <separator name="model GW" >
   <i type="int" name="MODEL_GW">     0</i>
   <i name="MODEL_EPS0">     27.40568053</i>
   <i name="MODEL_ALPHA">      1.00000000</i>
  </separator>
  <separator name="linear response parameters" >
   <i type="logical" name="LEPSILON"> F  </i>
   <i type="logical" name="LRPA"> F  </i>
   <i type="logical" name="LNABLA"> F  </i>
   <i type="logical" name="LVEL"> F  </i>
   <i type="int" name="KINTER">     0</i>
   <i name="CSHIFT">      0.10000000</i>
   <i name="OMEGAMAX">     -1.00000000</i>
   <i name="DEG_THRESHOLD">      0.00200000</i>
   <i name="RTIME">     -0.10000000</i>
   <i name="WPLASMAI">      0.00000000</i>
   <v name="DFIELD">      0.00000000      0.00000000      0.00000000</v>
   <v name="WPLASMA">      0.00000000      0.00000000      0.00000000      0.00000000      0.00000000      0.00000000      0.00000000      0.00000000      0.00000000</v>
  </separator>
  <separator name="orbital magnetization" >
   <i type="logical" name="NUCIND"> F  </i>
   <v name="MAGPOS">      0.00000000      0.00000000      0.00000000</v>
   <i type="logical" name="LNICSALL"> T  </i>
   <i type="logical" name="ORBITALMAG"> F  </i>
   <i type="logical" name="LMAGBLOCH"> F  </i>
   <i type="logical" name="LCHIMAG"> F  </i>
   <i type="logical" name="LGAUGE"> T  </i>
   <i type="int" name="MAGATOM">     0</i>
   <v name="MAGDIPOL">      0.00000000      0.00000000      0.00000000</v>
   <v name="AVECCONST">      0.00000000      0.00000000      0.00000000</v>
  </separator>
  <separator name="response functions" >
   <i type="logical" name="LADDER"> F  </i>
   <i type="logical" name="LRPAFORCE"> F  </i>
   <i type="logical" name="LFXC"> F  </i>
   <i type="logical" name="LHARTREE"> T  </i>
   <i type="int" name="IBSE">     0</i>
   <v type="int" name="KPOINT">    -1     0     0     0</v>
   <i type="logical" name="LTCTE"> F  </i>
   <i type="logical" name="LTETE"> F  </i>
   <i type="logical" name="LTRIPLET"> F  </i>
   <i type="logical" name="LFXCEPS"> F  </i>
   <i type="logical" name="LFXHEG"> F  </i>
   <i type="int" name="NATURALO">     2</i>
   <i type="logical" name="L2ORDER"> F  </i>
   <i type="logical" name="LMP2LT"> F  </i>
   <i type="logical" name="LUSEW"> F  </i>
   <i name="ENCUTGW">     -2.00000000</i>
   <i name="ENCUTGWSOFT">     -2.00000000</i>
   <i name="ENCUTLF">     -1.00000000</i>
   <i type="int" name="LMAXMP2">    -1</i>
   <i name="SCISSOR">      0.00000000</i>
   <i type="int" name="NOMEGA">     0</i>
   <i type="int" name="NOMEGAR">     0</i>
   <i type="int" name="NBANDSGW">    -1</i>
   <i type="int" name="NBANDSO">    -1</i>
   <i type="int" name="NBANDSV">    -1</i>
   <i type="int" name="NELM">   200</i>
   <i type="int" name="NELMHF">     1</i>
   <i type="int" name="DIM">     3</i>
   <i type="int" name="ANTIRES">     0</i>
   <i name="OMEGAMAX">    -30.00000000</i>
   <i name="OMEGAMIN">    -30.00000000</i>
   <i name="OMEGATL">   -200.00000000</i>
   <i type="int" name="OMEGAGRID">   140</i>
   <i name="CSHIFT">     -0.10000000</i>
   <i type="logical" name="SELFENERGY"> F  </i>
   <i type="logical" name="LSPECTRAL"> F  </i>
   <i type="logical" name="LSPECTRALGW"> F  </i>
   <i type="logical" name="LSINGLES"> F  </i>
   <i type="logical" name="LFERMIGW"> F  </i>
   <i type="logical" name="ODDONLYGW"> F  </i>
   <i type="logical" name="EVENONLYGW"> F  </i>
   <i type="int" name="NKREDLFX">     1</i>
   <i type="int" name="NKREDLFY">     1</i>
   <i type="int" name="NKREDLFZ">     1</i>
   <i type="int" name="MAXMEM">  2800</i>
   <i type="int" name="TELESCOPE">     0</i>
   <i type="int" name="TAUPAR">     1</i>
   <i type="int" name="OMEGAPAR">    -1</i>
   <i name="LAMBDA">      1.00000000</i>
  </separator>
  <separator name="External order field" >
   <i name="OFIELD_KAPPA">      0.00000000</i>
   <v name="OFIELD_K">      0.00000000      0.00000000      0.00000000</v>
   <i name="OFIELD_Q6_NEAR">      0.00000000</i>
   <i name="OFIELD_Q6_FAR">      0.00000000</i>
   <i name="OFIELD_A">      0.00000000</i>
  </separator>
  <separator name="solvation model" >
   <i type="logical" name="LSOL"> F  </i>
  </separator>
 </parameters>
 <atominfo>
  <atoms>      84 </atoms>
  <types>       2 </types>
  <array name="atoms" >
   <dimension dim="1">ion</dimension>
   <field type="string">element</field>
   <field type="int">atomtype</field>
   <set>
    <rc><c>H </c><c>   1</c></rc>
    <rc><c>H </c><c>   1</c></rc>
    <rc><c>H </c><c>   1</c></rc>
    <rc><c>H </c><c>   1</c></rc>
    <rc><c>H </c><c>   1</c></rc>
    <rc><c>H </c><c>   1</c></rc>
    <rc><c>H </c><c>   1</c></rc>
    <rc><c>H </c><c>   1</c></rc>
    <rc><c>H </c><c>   1</c></rc>
    <rc><c>H </c><c>   1</c></rc>
    <rc><c>H </c><c>   1</c></rc>
    <rc><c>H </c><c>   1</c></rc>
    <rc><c>H </c><c>   1</c></rc>
    <rc><c>H </c><c>   1</c></rc>
    <rc><c>H </c><c>   1</c></rc>
    <rc><c>H </c><c>   1</c></rc>
    <rc><c>H </c><c>   1</c></rc>
    <rc><c>H </c><c>   1</c></rc>
    <rc><c>H </c><c>   1</c></rc>
    <rc><c>H </c><c>   1</c></rc>
    <rc><c>H </c><c>   1</c></rc>
    <rc><c>H </c><c>   1</c></rc>
    <rc><c>H </c><c>   1</c></rc>
    <rc><c>H </c><c>   1</c></rc>
    <rc><c>H </c><c>   1</c></rc>
    <rc><c>H </c><c>   1</c></rc>
    <rc><c>H </c><c>   1</c></rc>
    <rc><c>H </c><c>   1</c></rc>
    <rc><c>H </c><c>   1</c></rc>
    <rc><c>H </c><c>   1</c></rc>
    <rc><c>H </c><c>   1</c></rc>
    <rc><c>H </c><c>   1</c></rc>
    <rc><c>H </c><c>   1</c></rc>
    <rc><c>H </c><c>   1</c></rc>
    <rc><c>H </c><c>   1</c></rc>
    <rc><c>H </c><c>   1</c></rc>
    <rc><c>H </c><c>   1</c></rc>
    <rc><c>H </c><c>   1</c></rc>
    <rc><c>H </c><c>   1</c></rc>
    <rc><c>H </c><c>   1</c></rc>
    <rc><c>H </c><c>   1</c></rc>
    <rc><c>H </c><c>   1</c></rc>
    <rc><c>C </c><c>   2</c></rc>
    <rc><c>C </c><c>   2</c></rc>
    <rc><c>C </c><c>   2</c></rc>
    <rc><c>C </c><c>   2</c></rc>
    <rc><c>C </c><c>   2</c></rc>
    <rc><c>C </c><c>   2</c></rc>
    <rc><c>C </c><c>   2</c></rc>
    <rc><c>C </c><c>   2</c></rc>
    <rc><c>C </c><c>   2</c></rc>
    <rc><c>C </c><c>   2</c></rc>
    <rc><c>C </c><c>   2</c></rc>
    <rc><c>C </c><c>   2</c></rc>
    <rc><c>C </c><c>   2</c></rc>
    <rc><c>C </c><c>   2</c></rc>
    <rc><c>C </c><c>   2</c></rc>
    <rc><c>C </c><c>   2</c></rc>
    <rc><c>C </c><c>   2</c></rc>
    <rc><c>C </c><c>   2</c></rc>
    <rc><c>C </c><c>   2</c></rc>
    <rc><c>C </c><c>   2</c></rc>
    <rc><c>C </c><c>   2</c></rc>
    <rc><c>C </c><c>   2</c></rc>
    <rc><c>C </c><c>   2</c></rc>
    <rc><c>C </c><c>   2</c></rc>
    <rc><c>C </c><c>   2</c></rc>
    <rc><c>C </c><c>   2</c></rc>
    <rc><c>C </c><c>   2</c></rc>
    <rc><c>C </c><c>   2</c></rc>
    <rc><c>C </c><c>   2</c></rc>
    <rc><c>C </c><c>   2</c></rc>
    <rc><c>C </c><c>   2</c></rc>
    <rc><c>C </c><c>   2</c></rc>
    <rc><c>C </c><c>   2</c></rc>
    <rc><c>C </c><c>   2</c></rc>
    <rc><c>C </c><c>   2</c></rc>
    <rc><c>C </c><c>   2</c></rc>
    <rc><c>C </c><c>   2</c></rc>
    <rc><c>C </c><c>   2</c></rc>
    <rc><c>C </c><c>   2</c></rc>
    <rc><c>C </c><c>   2</c></rc>
    <rc><c>C </c><c>   2</c></rc>
    <rc><c>C </c><c>   2</c></rc>
   </set>
  </array>
  <array name="atomtypes" >
   <dimension dim="1">type</dimension>
   <field type="int">atomspertype</field>
   <field type="string">element</field>
   <field>mass</field>
   <field>valence</field>
   <field type="string">pseudopotential</field>
   <set>
    <rc><c>  42</c><c>H </c><c>      1.00000000</c><c>      1.00000000</c><c>  PAW_PBE H 15Jun2001                   </c></rc>
    <rc><c>  42</c><c>C </c><c>     12.01100000</c><c>      4.00000000</c><c>  PAW_PBE C 08Apr2002                   </c></rc>
   </set>
  </array>
 </atominfo>
 <structure name="initialpos" >
  <crystal>
   <varray name="basis" >
    <v>      14.88346325       0.00000000       0.00000000 </v>
    <v>      -7.44173163      12.88945727       0.00000000 </v>
    <v>       0.00000000       0.00000000      20.00000000 </v>
   </varray>
   <i name="volume">   3836.79527424 </i>
   <varray name="rec_basis" >
    <v>       0.06718866       0.03879139       0.00000000 </v>
    <v>       0.00000000       0.07758279       0.00000000 </v>
    <v>       0.00000000       0.00000000       0.05000000 </v>
   </varray>
  </crystal>
  <varray name="positions" >
   <v>       0.42608641       0.27251478       0.33087228 </v>
   <v>       0.42608641       0.15357163       0.33087228 </v>
   <v>       0.42608094       0.15376259       0.64560003 </v>
   <v>       0.42608094       0.27231834       0.64560003 </v>
   <v>       0.57024530       0.42975470       0.48784137 </v>
   <v>       0.57024530       0.14049061       0.48784137 </v>
   <v>       0.52948400       0.26474200       0.36889079 </v>
   <v>       0.53050543       0.26525271       0.60809488 </v>
   <v>       0.73525800       0.47051600       0.36889079 </v>
   <v>       0.72748522       0.57391359       0.33087228 </v>
   <v>       0.73525800       0.26474200       0.36889079 </v>
   <v>       0.72748522       0.15357163       0.33087228 </v>
   <v>       0.73474729       0.46949457       0.60809488 </v>
   <v>       0.72768166       0.57391906       0.64560003 </v>
   <v>       0.73474729       0.26525271       0.60809488 </v>
   <v>       0.72768166       0.15376259       0.64560003 </v>
   <v>       0.85950939       0.42975470       0.48784137 </v>
   <v>       0.80715308       0.90357654       0.48938308 </v>
   <v>       0.09642346       0.90357654       0.48938308 </v>
   <v>       0.09642346       0.19284692       0.48938308 </v>
   <v>       0.86792444       0.73584889       0.31875482 </v>
   <v>       0.97701000       0.83592036       0.36090941 </v>
   <v>       0.85891035       0.83592036       0.36090941 </v>
   <v>       0.84642837       0.57391359       0.33087228 </v>
   <v>       0.86792444       0.13207556       0.31875482 </v>
   <v>       0.85891035       0.02299000       0.36090941 </v>
   <v>       0.97701000       0.14108965       0.36090941 </v>
   <v>       0.84642837       0.27251478       0.33087228 </v>
   <v>       0.26415111       0.13207556       0.31875482 </v>
   <v>       0.16407964       0.14108965       0.36090941 </v>
   <v>       0.16407964       0.02299000       0.36090941 </v>
   <v>       0.93109556       0.86219113       0.60930655 </v>
   <v>       0.93799896       0.75744627       0.64642099 </v>
   <v>       0.81944731       0.75744627       0.64642099 </v>
   <v>       0.84623741       0.57391906       0.64560003 </v>
   <v>       0.93109556       0.06890444       0.60930655 </v>
   <v>       0.81944731       0.06200104       0.64642099 </v>
   <v>       0.93799896       0.18055269       0.64642099 </v>
   <v>       0.84623741       0.27231834       0.64560003 </v>
   <v>       0.13780887       0.06890444       0.60930655 </v>
   <v>       0.24255373       0.18055269       0.64642099 </v>
   <v>       0.24255373       0.06200104       0.64642099 </v>
   <v>       0.44149033       0.22074516       0.48810552 </v>
   <v>       0.38709193       0.19354596       0.42678767 </v>
   <v>       0.44536171       0.22268086       0.36114987 </v>
   <v>       0.38849287       0.19424644       0.54969011 </v>
   <v>       0.44629488       0.22314744       0.61529517 </v>
   <v>       0.55737534       0.27868767       0.48784805 </v>
   <v>       0.61260447       0.22520894       0.48784001 </v>
   <v>       0.61260447       0.38739553       0.48784001 </v>
   <v>       0.72131233       0.27868767       0.48784805 </v>
   <v>       0.72131233       0.44262466       0.48784805 </v>
   <v>       0.77479106       0.38739553       0.48784001 </v>
   <v>       0.10922598       0.05461299       0.48893618 </v>
   <v>       0.05405088       0.10810176       0.48883333 </v>
   <v>       0.94538701       0.05461299       0.48893618 </v>
   <v>       0.89189824       0.94594912       0.48883333 </v>
   <v>       0.94538701       0.89077402       0.48893618 </v>
   <v>       0.05405088       0.94594912       0.48883333 </v>
   <v>       0.77925484       0.55850967       0.48810552 </v>
   <v>       0.80645404       0.61290807       0.42678767 </v>
   <v>       0.86108767       0.72217534       0.42747628 </v>
   <v>       0.88752288       0.77504577       0.48921269 </v>
   <v>       0.89233605       0.78467210       0.36352163 </v>
   <v>       0.77731914       0.55463829       0.36114987 </v>
   <v>       0.77925484       0.22074516       0.48810552 </v>
   <v>       0.80645404       0.19354596       0.42678767 </v>
   <v>       0.86108767       0.13891233       0.42747628 </v>
   <v>       0.88752288       0.11247712       0.48921269 </v>
   <v>       0.89233605       0.10766395       0.36352163 </v>
   <v>       0.77731914       0.22268086       0.36114987 </v>
   <v>       0.27782466       0.13891233       0.42747628 </v>
   <v>       0.22495423       0.11247712       0.48921269 </v>
   <v>       0.21532790       0.10766395       0.36352163 </v>
   <v>       0.86047287       0.72094574       0.55025816 </v>
   <v>       0.80575356       0.61150713       0.54969011 </v>
   <v>       0.88893709       0.77787418       0.61617811 </v>
   <v>       0.77685256       0.55370512       0.61529517 </v>
   <v>       0.86047287       0.13952713       0.55025816 </v>
   <v>       0.80575356       0.19424644       0.54969011 </v>
   <v>       0.88893709       0.11106291       0.61617811 </v>
   <v>       0.77685256       0.22314744       0.61529517 </v>
   <v>       0.27905426       0.13952713       0.55025816 </v>
   <v>       0.22212582       0.11106291       0.61617811 </v>
  </varray>
 </structure>
 <calculation>
  <scstep>
   <time name="dav">   44.92   45.24</time>
   <time name="total">   45.01   45.34</time>
   <energy>
    <i name="alphaZ">     52.80982999 </i>
    <i name="ewald">  22498.80055601 </i>
    <i name="hartreedc"> -28149.03278775 </i>
    <i name="XCdc">    693.69581519 </i>
    <i name="pawpsdc">  17596.47899114 </i>
    <i name="pawaedc"> -17626.22855596 </i>
    <i name="eentropy">     -0.00000000 </i>
    <i name="bandstr">  -2305.50384292 </i>
    <i name="atom">   6704.66376510 </i>
    <i name="e_fr_energy">   -534.31622921 </i>
    <i name="e_wo_entrp">   -534.31622921 </i>
    <i name="e_0_energy">   -534.31622921 </i>
   </energy>
  </scstep>
  <scstep>
   <time name="dav">   49.71   50.06</time>
   <time name="total">   49.71   50.06</time>
   <energy>
    <i name="e_fr_energy">   -534.77256211 </i>
    <i name="e_wo_entrp">   -534.77256211 </i>
    <i name="e_0_energy">   -534.77256211 </i>
   </energy>
  </scstep>
  <scstep>
   <time name="dav">   51.50   51.86</time>
   <time name="total">   51.51   51.86</time>
   <energy>
    <i name="e_fr_energy">   -534.78111710 </i>
    <i name="e_wo_entrp">   -534.78111710 </i>
    <i name="e_0_energy">   -534.78111710 </i>
   </energy>
  </scstep>
  <scstep>
   <time name="dav">   50.22   50.56</time>
   <time name="total">   50.22   50.57</time>
   <energy>
    <i name="e_fr_energy">   -534.78131399 </i>
    <i name="e_wo_entrp">   -534.78131399 </i>
    <i name="e_0_energy">   -534.78131399 </i>
   </energy>
  </scstep>
  <scstep>
   <time name="dav">   45.35   45.67</time>
   <time name="total">   45.36   45.68</time>
   <energy>
    <i name="alphaZ">     52.80982999 </i>
    <i name="ewald">  22498.80055601 </i>
    <i name="hartreedc"> -28149.03278775 </i>
    <i name="XCdc">    693.69581519 </i>
    <i name="pawpsdc">  17596.47899114 </i>
    <i name="pawaedc"> -17626.22855596 </i>
    <i name="eentropy">     -0.00000000 </i>
    <i name="bandstr">  -2305.96893699 </i>
    <i name="atom">   6704.66376510 </i>
    <i name="e_fr_energy">   -534.78132328 </i>
    <i name="e_wo_entrp">   -534.78132328 </i>
    <i name="e_0_energy">   -534.78132328 </i>
   </energy>
  </scstep>
  <structure>
   <crystal>
    <varray name="basis" >
     <v>      14.88346325       0.00000000       0.00000000 </v>
     <v>      -7.44173163      12.88945727       0.00000000 </v>
     <v>       0.00000000       0.00000000      20.00000000 </v>
    </varray>
    <i name="volume">   3836.79527424 </i>
    <varray name="rec_basis" >
     <v>       0.06718866       0.03879139       0.00000000 </v>
     <v>       0.00000000       0.07758279       0.00000000 </v>
     <v>       0.00000000       0.00000000       0.05000000 </v>
    </varray>
   </crystal>
   <varray name="positions" >
    <v>       0.42608641       0.27251478       0.33087228 </v>
    <v>       0.42608641       0.15357163       0.33087228 </v>
    <v>       0.42608094       0.15376259       0.64560003 </v>
    <v>       0.42608094       0.27231834       0.64560003 </v>
    <v>       0.57024530       0.42975470       0.48784137 </v>
    <v>       0.57024530       0.14049061       0.48784137 </v>
    <v>       0.52948400       0.26474200       0.36889079 </v>
    <v>       0.53050543       0.26525271       0.60809488 </v>
    <v>       0.73525800       0.47051600       0.36889079 </v>
    <v>       0.72748522       0.57391359       0.33087228 </v>
    <v>       0.73525800       0.26474200       0.36889079 </v>
    <v>       0.72748522       0.15357163       0.33087228 </v>
    <v>       0.73474729       0.46949457       0.60809488 </v>
    <v>       0.72768166       0.57391906       0.64560003 </v>
    <v>       0.73474729       0.26525271       0.60809488 </v>
    <v>       0.72768166       0.15376259       0.64560003 </v>
    <v>       0.85950939       0.42975470       0.48784137 </v>
    <v>       0.80715308       0.90357654       0.48938308 </v>
    <v>       0.09642346       0.90357654       0.48938308 </v>
    <v>       0.09642346       0.19284692       0.48938308 </v>
    <v>       0.86792444       0.73584889       0.31875482 </v>
    <v>       0.97701000       0.83592036       0.36090941 </v>
    <v>       0.85891035       0.83592036       0.36090941 </v>
    <v>       0.84642837       0.57391359       0.33087228 </v>
    <v>       0.86792444       0.13207556       0.31875482 </v>
    <v>       0.85891035       0.02299000       0.36090941 </v>
    <v>       0.97701000       0.14108965       0.36090941 </v>
    <v>       0.84642837       0.27251478       0.33087228 </v>
    <v>       0.26415111       0.13207556       0.31875482 </v>
    <v>       0.16407964       0.14108965       0.36090941 </v>
    <v>       0.16407964       0.02299000       0.36090941 </v>
    <v>       0.93109556       0.86219113       0.60930655 </v>
    <v>       0.93799896       0.75744627       0.64642099 </v>
    <v>       0.81944731       0.75744627       0.64642099 </v>
    <v>       0.84623741       0.57391906       0.64560003 </v>
    <v>       0.93109556       0.06890444       0.60930655 </v>
    <v>       0.81944731       0.06200104       0.64642099 </v>
    <v>       0.93799896       0.18055269       0.64642099 </v>
    <v>       0.84623741       0.27231834       0.64560003 </v>
    <v>       0.13780887       0.06890444       0.60930655 </v>
    <v>       0.24255373       0.18055269       0.64642099 </v>
    <v>       0.24255373       0.06200104       0.64642099 </v>
    <v>       0.44149033       0.22074516       0.48810552 </v>
    <v>       0.38709193       0.19354596       0.42678767 </v>
    <v>       0.44536171       0.22268086       0.36114987 </v>
    <v>       0.38849287       0.19424644       0.54969011 </v>
    <v>       0.44629488       0.22314744       0.61529517 </v>
    <v>       0.55737534       0.27868767       0.48784805 </v>
    <v>       0.61260447       0.22520894       0.48784001 </v>
    <v>       0.61260447       0.38739553       0.48784001 </v>
    <v>       0.72131233       0.27868767       0.48784805 </v>
    <v>       0.72131233       0.44262466       0.48784805 </v>
    <v>       0.77479106       0.38739553       0.48784001 </v>
    <v>       0.10922598       0.05461299       0.48893618 </v>
    <v>       0.05405088       0.10810176       0.48883333 </v>
    <v>       0.94538701       0.05461299       0.48893618 </v>
    <v>       0.89189824       0.94594912       0.48883333 </v>
    <v>       0.94538701       0.89077402       0.48893618 </v>
    <v>       0.05405088       0.94594912       0.48883333 </v>
    <v>       0.77925484       0.55850967       0.48810552 </v>
    <v>       0.80645404       0.61290807       0.42678767 </v>
    <v>       0.86108767       0.72217534       0.42747628 </v>
    <v>       0.88752288       0.77504577       0.48921269 </v>
    <v>       0.89233605       0.78467210       0.36352163 </v>
    <v>       0.77731914       0.55463829       0.36114987 </v>
    <v>       0.77925484       0.22074516       0.48810552 </v>
    <v>       0.80645404       0.19354596       0.42678767 </v>
    <v>       0.86108767       0.13891233       0.42747628 </v>
    <v>       0.88752288       0.11247712       0.48921269 </v>
    <v>       0.89233605       0.10766395       0.36352163 </v>
    <v>       0.77731914       0.22268086       0.36114987 </v>
    <v>       0.27782466       0.13891233       0.42747628 </v>
    <v>       0.22495423       0.11247712       0.48921269 </v>
    <v>       0.21532790       0.10766395       0.36352163 </v>
    <v>       0.86047287       0.72094574       0.55025816 </v>
    <v>       0.80575356       0.61150713       0.54969011 </v>
    <v>       0.88893709       0.77787418       0.61617811 </v>
    <v>       0.77685256       0.55370512       0.61529517 </v>
    <v>       0.86047287       0.13952713       0.55025816 </v>
    <v>       0.80575356       0.19424644       0.54969011 </v>
    <v>       0.88893709       0.11106291       0.61617811 </v>
    <v>       0.77685256       0.22314744       0.61529517 </v>
    <v>       0.27905426       0.13952713       0.55025816 </v>
    <v>       0.22212582       0.11106291       0.61617811 </v>
   </varray>
  </structure>
  <varray name="forces" >
   <v>       0.00480972      -0.00293968      -0.00363139 </v>
   <v>      -0.00014098       0.00563518      -0.00363139 </v>
   <v>       0.00266130       0.00485055       0.00230437 </v>
   <v>       0.00553135      -0.00012052       0.00230437 </v>
   <v>       0.00315288      -0.00182031       0.00398998 </v>
   <v>      -0.00000000       0.00364063       0.00398998 </v>
   <v>      -0.00813087      -0.00469436       0.00031540 </v>
   <v>       0.00254263       0.00146799       0.00420069 </v>
   <v>      -0.00000000       0.00938872       0.00031540 </v>
   <v>       0.00495070      -0.00269550      -0.00363139 </v>
   <v>       0.00813087      -0.00469436       0.00031540 </v>
   <v>       0.00014098       0.00563518      -0.00363139 </v>
   <v>       0.00000000      -0.00293597       0.00420069 </v>
   <v>       0.00287005      -0.00473003       0.00230437 </v>
   <v>      -0.00254263       0.00146799       0.00420069 </v>
   <v>      -0.00266130       0.00485055       0.00230437 </v>
   <v>      -0.00315288      -0.00182031       0.00398998 </v>
   <v>       0.00613891       0.00354430      -0.00538234 </v>
   <v>      -0.00613891       0.00354430      -0.00538234 </v>
   <v>      -0.00000000      -0.00708861      -0.00538234 </v>
   <v>       0.00000000      -0.00212405       0.00162427 </v>
   <v>       0.00023067       0.00130930       0.00091364 </v>
   <v>      -0.00023067       0.00130930       0.00091364 </v>
   <v>      -0.00495070      -0.00269550      -0.00363139 </v>
   <v>      -0.00183948       0.00106202       0.00162427 </v>
   <v>       0.00101855      -0.00085442       0.00091364 </v>
   <v>       0.00124922      -0.00045488       0.00091364 </v>
   <v>      -0.00480972      -0.00293968      -0.00363139 </v>
   <v>       0.00183948       0.00106202       0.00162427 </v>
   <v>      -0.00124922      -0.00045488       0.00091364 </v>
   <v>      -0.00101855      -0.00085442       0.00091364 </v>
   <v>      -0.00000000      -0.00845813       0.00231306 </v>
   <v>      -0.00074849      -0.00305978      -0.00044598 </v>
   <v>       0.00074849      -0.00305978      -0.00044598 </v>
   <v>      -0.00287005      -0.00473003       0.00230437 </v>
   <v>      -0.00732496       0.00422907       0.00231306 </v>
   <v>      -0.00227560       0.00217811      -0.00044598 </v>
   <v>      -0.00302409       0.00088167      -0.00044598 </v>
   <v>      -0.00553135      -0.00012052       0.00230437 </v>
   <v>       0.00732496       0.00422907       0.00231306 </v>
   <v>       0.00302409       0.00088167      -0.00044598 </v>
   <v>       0.00227560       0.00217811      -0.00044598 </v>
   <v>       0.00017536       0.00010125       0.00438354 </v>
   <v>       0.00793900       0.00458358      -0.00180932 </v>
   <v>       0.00055541       0.00032067       0.00462880 </v>
   <v>      -0.00269522      -0.00155608      -0.00287179 </v>
   <v>      -0.00009168      -0.00005293      -0.00632226 </v>
   <v>       0.00157089       0.00090695      -0.00367737 </v>
   <v>       0.00000000      -0.00453887       0.00255261 </v>
   <v>      -0.00393077       0.00226943       0.00255261 </v>
   <v>      -0.00157089       0.00090695      -0.00367737 </v>
   <v>       0.00000000      -0.00181390      -0.00367737 </v>
   <v>       0.00393077       0.00226943       0.00255261 </v>
   <v>       0.00096629       0.00055789       0.00645593 </v>
   <v>      -0.00000000       0.00330098      -0.00233306 </v>
   <v>      -0.00096629       0.00055789       0.00645593 </v>
   <v>      -0.00285873      -0.00165049      -0.00233306 </v>
   <v>       0.00000000      -0.00111577       0.00645593 </v>
   <v>       0.00285873      -0.00165049      -0.00233306 </v>
   <v>      -0.00000000      -0.00020249       0.00438354 </v>
   <v>      -0.00000000      -0.00916717      -0.00180932 </v>
   <v>      -0.00000000      -0.00966898       0.00198358 </v>
   <v>      -0.00000000       0.00278386      -0.00467108 </v>
   <v>      -0.00000000      -0.00284753      -0.00234752 </v>
   <v>       0.00000000      -0.00064133       0.00462880 </v>
   <v>      -0.00017536       0.00010125       0.00438354 </v>
   <v>      -0.00793900       0.00458358      -0.00180932 </v>
   <v>      -0.00837358       0.00483449       0.00198358 </v>
   <v>       0.00241089      -0.00139193      -0.00467108 </v>
   <v>      -0.00246603       0.00142377      -0.00234752 </v>
   <v>      -0.00055541       0.00032067       0.00462880 </v>
   <v>       0.00837358       0.00483449       0.00198358 </v>
   <v>      -0.00241089      -0.00139193      -0.00467108 </v>
   <v>       0.00246603       0.00142377      -0.00234752 </v>
   <v>       0.00000000       0.00264348       0.00062486 </v>
   <v>      -0.00000000       0.00311217      -0.00287179 </v>
   <v>       0.00000000      -0.00176218      -0.00193927 </v>
   <v>      -0.00000000       0.00010586      -0.00632226 </v>
   <v>       0.00228932      -0.00132174       0.00062486 </v>
   <v>       0.00269522      -0.00155608      -0.00287179 </v>
   <v>      -0.00152609       0.00088109      -0.00193927 </v>
   <v>       0.00009168      -0.00005293      -0.00632226 </v>
   <v>      -0.00228932      -0.00132174       0.00062486 </v>
   <v>       0.00152609       0.00088109      -0.00193927 </v>
  </varray>
  <varray name="stress" >
   <v>      -0.02886929      -0.00000000       0.00000000 </v>
   <v>      -0.00000000      -0.02886929      -0.00000000 </v>
   <v>       0.00000000       0.00000000      -0.39216160 </v>
  </varray>
  <energy>
   <i name="e_fr_energy">   -536.96313414 </i>
   <i name="e_wo_entrp">   -536.96313414 </i>
   <i name="e_0_energy">     -0.00000000 </i>
  </energy>
  <time name="totalsc">  271.22  273.19</time>
  <eigenvalues>
   <array>
    <dimension dim="1">band</dimension>
    <dimension dim="2">kpoint</dimension>
    <dimension dim="3">spin</dimension>
    <field>eigene</field>
    <field>occ</field>
    <set>
     <set comment="spin 1">
      <set comment="kpoint 1">
       <r>  -20.9490    1.0000 </r>
       <r>  -20.5932    1.0000 </r>
       <r>  -20.5281    1.0000 </r>
       <r>  -20.5278    1.0000 </r>
       <r>  -19.7326    1.0000 </r>
       <r>  -18.9826    1.0000 </r>
       <r>  -18.9824    1.0000 </r>
       <r>  -18.6761    1.0000 </r>
       <r>  -18.6699    1.0000 </r>
       <r>  -18.6697    1.0000 </r>
       <r>  -17.7089    1.0000 </r>
       <r>  -17.6668    1.0000 </r>
       <r>  -17.6667    1.0000 </r>
       <r>  -16.8683    1.0000 </r>
       <r>  -16.8450    1.0000 </r>
       <r>  -16.8448    1.0000 </r>
       <r>  -16.7266    1.0000 </r>
       <r>  -16.7266    1.0000 </r>
       <r>  -16.4792    1.0000 </r>
       <r>  -16.4019    1.0000 </r>
       <r>  -16.4018    1.0000 </r>
       <r>  -15.4542    1.0000 </r>
       <r>  -15.3813    1.0000 </r>
       <r>  -15.3812    1.0000 </r>
       <r>  -14.5970    1.0000 </r>
       <r>  -14.5805    1.0000 </r>
       <r>  -14.5803    1.0000 </r>
       <r>  -14.5574    1.0000 </r>
       <r>  -14.5574    1.0000 </r>
       <r>  -13.9325    1.0000 </r>
       <r>  -13.3187    1.0000 </r>
       <r>  -13.3186    1.0000 </r>
       <r>  -12.4256    1.0000 </r>
       <r>  -12.3956    1.0000 </r>
       <r>  -12.3954    1.0000 </r>
       <r>  -12.0192    1.0000 </r>
       <r>  -12.0191    1.0000 </r>
       <r>  -11.4017    1.0000 </r>
       <r>  -11.3189    1.0000 </r>
       <r>  -11.1959    1.0000 </r>
       <r>  -11.1338    1.0000 </r>
       <r>  -11.1336    1.0000 </r>
       <r>  -10.5505    1.0000 </r>
       <r>  -10.5429    1.0000 </r>
       <r>  -10.3672    1.0000 </r>
       <r>  -10.1526    1.0000 </r>
       <r>  -10.1524    1.0000 </r>
       <r>  -10.0297    1.0000 </r>
       <r>   -9.6041    1.0000 </r>
       <r>   -9.6040    1.0000 </r>
       <r>   -9.3556    1.0000 </r>
       <r>   -9.2743    1.0000 </r>
       <r>   -9.2742    1.0000 </r>
       <r>   -9.1675    1.0000 </r>
       <r>   -9.1674    1.0000 </r>
       <r>   -9.1650    1.0000 </r>
       <r>   -9.1438    1.0000 </r>
       <r>   -9.0526    1.0000 </r>
       <r>   -8.9961    1.0000 </r>
       <r>   -8.9960    1.0000 </r>
       <r>   -8.6876    1.0000 </r>
       <r>   -8.6872    1.0000 </r>
       <r>   -8.6871    1.0000 </r>
       <r>   -8.5908    1.0000 </r>
       <r>   -8.5907    1.0000 </r>
       <r>   -8.5437    1.0000 </r>
       <r>   -8.4983    1.0000 </r>
       <r>   -8.4982    1.0000 </r>
       <r>   -8.4475    1.0000 </r>
       <r>   -8.3825    1.0000 </r>
       <r>   -8.3529    1.0000 </r>
       <r>   -8.3527    1.0000 </r>
       <r>   -8.3339    1.0000 </r>
       <r>   -8.3337    1.0000 </r>
       <r>   -8.1878    1.0000 </r>
       <r>   -8.0262    1.0000 </r>
       <r>   -8.0261    1.0000 </r>
       <r>   -7.9739    1.0000 </r>
       <r>   -7.9738    1.0000 </r>
       <r>   -7.8943    1.0000 </r>
       <r>   -7.7546    1.0000 </r>
       <r>   -7.7544    1.0000 </r>
       <r>   -7.6627    1.0000 </r>
       <r>   -7.4095    1.0000 </r>
       <r>   -7.4094    1.0000 </r>
       <r>   -7.2654    1.0000 </r>
       <r>   -7.1708    1.0000 </r>
       <r>   -6.8337    1.0000 </r>
       <r>   -6.8335    1.0000 </r>
       <r>   -6.7819    1.0000 </r>
       <r>   -6.7818    1.0000 </r>
       <r>   -6.7227    1.0000 </r>
       <r>   -6.6887    1.0000 </r>
       <r>   -6.3575    1.0000 </r>
       <r>   -6.3573    1.0000 </r>
       <r>   -5.1529    1.0000 </r>
       <r>   -5.1529    1.0000 </r>
       <r>   -5.0369    1.0000 </r>
       <r>   -5.0369    1.0000 </r>
       <r>   -4.7656    1.0000 </r>
       <r>   -4.7653    1.0000 </r>
       <r>   -4.4805    1.0000 </r>
       <r>   -4.4803    1.0000 </r>
       <r>   -4.4784    1.0000 </r>
       <r>   -4.4343    1.0000 </r>
       <r>   -0.4289    0.0000 </r>
       <r>   -0.4289    0.0000 </r>
       <r>   -0.3036    0.0000 </r>
       <r>   -0.3035    0.0000 </r>
       <r>   -0.0456    0.0000 </r>
       <r>   -0.0454    0.0000 </r>
       <r>   -0.0147    0.0000 </r>
       <r>    0.1157    0.0000 </r>
       <r>    0.2603    0.0000 </r>
       <r>    0.2605    0.0000 </r>
       <r>    0.2665    0.0000 </r>
       <r>    0.3906    0.0000 </r>
       <r>    0.7823    0.0000 </r>
       <r>    0.8030    0.0000 </r>
       <r>    0.8031    0.0000 </r>
       <r>    0.9061    0.0000 </r>
       <r>    0.9908    0.0000 </r>
       <r>    0.9995    0.0000 </r>
       <r>    0.9998    0.0000 </r>
       <r>    1.0862    0.0000 </r>
       <r>    1.0863    0.0000 </r>
       <r>    1.2926    0.0000 </r>
       <r>    1.3177    0.0000 </r>
       <r>    1.3180    0.0000 </r>
       <r>    1.4943    0.0000 </r>
       <r>    1.6201    0.0000 </r>
       <r>    1.6213    0.0000 </r>
       <r>    1.7918    0.0000 </r>
       <r>    1.7948    0.0000 </r>
       <r>    1.8007    0.0000 </r>
       <r>    1.8492    0.0000 </r>
       <r>    1.8729    0.0000 </r>
       <r>    2.0119    0.0000 </r>
       <r>    2.1741    0.0000 </r>
       <r>    2.2755    0.0000 </r>
       <r>    2.3034    0.0000 </r>
       <r>    2.3382    0.0000 </r>
       <r>    2.3394    0.0000 </r>
       <r>    2.4120    0.0000 </r>
       <r>    2.4138    0.0000 </r>
       <r>    2.4248    0.0000 </r>
       <r>    2.4532    0.0000 </r>
       <r>    2.4565    0.0000 </r>
       <r>    2.4773    0.0000 </r>
       <r>    2.4982    0.0000 </r>
       <r>    2.5311    0.0000 </r>
       <r>    2.5314    0.0000 </r>
       <r>    2.6025    0.0000 </r>
       <r>    2.7915    0.0000 </r>
       <r>    2.7928    0.0000 </r>
       <r>    2.7964    0.0000 </r>
       <r>    2.8151    0.0000 </r>
       <r>    2.8156    0.0000 </r>
       <r>    2.9585    0.0000 </r>
       <r>    2.9633    0.0000 </r>
      </set>
      <set comment="kpoint 2">
       <r>  -20.9487    1.0000 </r>
       <r>  -20.5980    1.0000 </r>
       <r>  -20.5279    1.0000 </r>
       <r>  -20.5228    1.0000 </r>
       <r>  -19.7342    1.0000 </r>
       <r>  -18.9824    1.0000 </r>
       <r>  -18.9806    1.0000 </r>
       <r>  -18.6761    1.0000 </r>
       <r>  -18.6699    1.0000 </r>
       <r>  -18.6697    1.0000 </r>
       <r>  -17.7320    1.0000 </r>
       <r>  -17.6667    1.0000 </r>
       <r>  -17.6440    1.0000 </r>
       <r>  -16.8683    1.0000 </r>
       <r>  -16.8450    1.0000 </r>
       <r>  -16.8448    1.0000 </r>
       <r>  -16.7274    1.0000 </r>
       <r>  -16.7266    1.0000 </r>
       <r>  -16.4789    1.0000 </r>
       <r>  -16.4020    1.0000 </r>
       <r>  -16.4018    1.0000 </r>
       <r>  -15.4541    1.0000 </r>
       <r>  -15.3814    1.0000 </r>
       <r>  -15.3812    1.0000 </r>
       <r>  -14.5970    1.0000 </r>
       <r>  -14.5805    1.0000 </r>
       <r>  -14.5803    1.0000 </r>
       <r>  -14.5574    1.0000 </r>
       <r>  -14.5571    1.0000 </r>
       <r>  -13.9353    1.0000 </r>
       <r>  -13.3186    1.0000 </r>
       <r>  -13.3152    1.0000 </r>
       <r>  -12.4255    1.0000 </r>
       <r>  -12.3956    1.0000 </r>
       <r>  -12.3954    1.0000 </r>
       <r>  -12.0214    1.0000 </r>
       <r>  -12.0191    1.0000 </r>
       <r>  -11.4008    1.0000 </r>
       <r>  -11.3187    1.0000 </r>
       <r>  -11.1960    1.0000 </r>
       <r>  -11.1341    1.0000 </r>
       <r>  -11.1336    1.0000 </r>
       <r>  -10.5503    1.0000 </r>
       <r>  -10.5426    1.0000 </r>
       <r>  -10.3675    1.0000 </r>
       <r>  -10.1574    1.0000 </r>
       <r>  -10.1525    1.0000 </r>
       <r>  -10.0241    1.0000 </r>
       <r>   -9.6040    1.0000 </r>
       <r>   -9.6035    1.0000 </r>
       <r>   -9.3559    1.0000 </r>
       <r>   -9.2743    1.0000 </r>
       <r>   -9.2742    1.0000 </r>
       <r>   -9.1690    1.0000 </r>
       <r>   -9.1676    1.0000 </r>
       <r>   -9.1652    1.0000 </r>
       <r>   -9.1428    1.0000 </r>
       <r>   -9.0518    1.0000 </r>
       <r>   -8.9964    1.0000 </r>
       <r>   -8.9960    1.0000 </r>
       <r>   -8.6875    1.0000 </r>
       <r>   -8.6871    1.0000 </r>
       <r>   -8.6870    1.0000 </r>
       <r>   -8.5909    1.0000 </r>
       <r>   -8.5907    1.0000 </r>
       <r>   -8.5438    1.0000 </r>
       <r>   -8.4983    1.0000 </r>
       <r>   -8.4982    1.0000 </r>
       <r>   -8.4476    1.0000 </r>
       <r>   -8.3828    1.0000 </r>
       <r>   -8.3529    1.0000 </r>
       <r>   -8.3527    1.0000 </r>
       <r>   -8.3355    1.0000 </r>
       <r>   -8.3337    1.0000 </r>
       <r>   -8.1875    1.0000 </r>
       <r>   -8.0265    1.0000 </r>
       <r>   -8.0261    1.0000 </r>
       <r>   -7.9739    1.0000 </r>
       <r>   -7.9735    1.0000 </r>
       <r>   -7.8936    1.0000 </r>
       <r>   -7.7548    1.0000 </r>
       <r>   -7.7545    1.0000 </r>
       <r>   -7.6616    1.0000 </r>
       <r>   -7.4125    1.0000 </r>
       <r>   -7.4090    1.0000 </r>
       <r>   -7.2656    1.0000 </r>
       <r>   -7.1682    1.0000 </r>
       <r>   -6.8336    1.0000 </r>
       <r>   -6.8334    1.0000 </r>
       <r>   -6.7824    1.0000 </r>
       <r>   -6.7816    1.0000 </r>
       <r>   -6.7233    1.0000 </r>
       <r>   -6.6890    1.0000 </r>
       <r>   -6.3577    1.0000 </r>
       <r>   -6.3566    1.0000 </r>
       <r>   -5.1529    1.0000 </r>
       <r>   -5.1527    1.0000 </r>
       <r>   -5.0371    1.0000 </r>
       <r>   -5.0369    1.0000 </r>
       <r>   -4.7655    1.0000 </r>
       <r>   -4.7650    1.0000 </r>
       <r>   -4.4806    1.0000 </r>
       <r>   -4.4804    1.0000 </r>
       <r>   -4.4786    1.0000 </r>
       <r>   -4.4345    1.0000 </r>
       <r>   -0.4290    0.0000 </r>
       <r>   -0.4288    0.0000 </r>
       <r>   -0.3036    0.0000 </r>
       <r>   -0.3035    0.0000 </r>
       <r>   -0.0456    0.0000 </r>
       <r>   -0.0451    0.0000 </r>
       <r>   -0.0140    0.0000 </r>
       <r>    0.1158    0.0000 </r>
       <r>    0.2602    0.0000 </r>
       <r>    0.2603    0.0000 </r>
       <r>    0.2671    0.0000 </r>
       <r>    0.3899    0.0000 </r>
       <r>    0.7820    0.0000 </r>
       <r>    0.7932    0.0000 </r>
       <r>    0.8010    0.0000 </r>
       <r>    0.9134    0.0000 </r>
       <r>    0.9827    0.0000 </r>
       <r>    1.0016    0.0000 </r>
       <r>    1.0027    0.0000 </r>
       <r>    1.0846    0.0000 </r>
       <r>    1.0940    0.0000 </r>
       <r>    1.2941    0.0000 </r>
       <r>    1.3183    0.0000 </r>
       <r>    1.3206    0.0000 </r>
       <r>    1.4957    0.0000 </r>
       <r>    1.6138    0.0000 </r>
       <r>    1.6187    0.0000 </r>
       <r>    1.7911    0.0000 </r>
       <r>    1.7961    0.0000 </r>
       <r>    1.8034    0.0000 </r>
       <r>    1.8536    0.0000 </r>
       <r>    1.8773    0.0000 </r>
       <r>    2.0126    0.0000 </r>
       <r>    2.1713    0.0000 </r>
       <r>    2.2713    0.0000 </r>
       <r>    2.3032    0.0000 </r>
       <r>    2.3301    0.0000 </r>
       <r>    2.3370    0.0000 </r>
       <r>    2.4021    0.0000 </r>
       <r>    2.4078    0.0000 </r>
       <r>    2.4371    0.0000 </r>
       <r>    2.4594    0.0000 </r>
       <r>    2.4623    0.0000 </r>
       <r>    2.4765    0.0000 </r>
       <r>    2.4950    0.0000 </r>
       <r>    2.5318    0.0000 </r>
       <r>    2.5338    0.0000 </r>
       <r>    2.6039    0.0000 </r>
       <r>    2.7928    0.0000 </r>
       <r>    2.7938    0.0000 </r>
       <r>    2.7982    0.0000 </r>
       <r>    2.8169    0.0000 </r>
       <r>    2.8187    0.0000 </r>
       <r>    2.9467    0.0000 </r>
       <r>    2.9583    0.0000 </r>
      </set>
      <set comment="kpoint 3">
       <r>  -20.9480    1.0000 </r>
       <r>  -20.6095    1.0000 </r>
       <r>  -20.5279    1.0000 </r>
       <r>  -20.5101    1.0000 </r>
       <r>  -19.7389    1.0000 </r>
       <r>  -18.9824    1.0000 </r>
       <r>  -18.9749    1.0000 </r>
       <r>  -18.6761    1.0000 </r>
       <r>  -18.6699    1.0000 </r>
       <r>  -18.6697    1.0000 </r>
       <r>  -17.7683    1.0000 </r>
       <r>  -17.6667    1.0000 </r>
       <r>  -17.6085    1.0000 </r>
       <r>  -16.8682    1.0000 </r>
       <r>  -16.8451    1.0000 </r>
       <r>  -16.8448    1.0000 </r>
       <r>  -16.7299    1.0000 </r>
       <r>  -16.7266    1.0000 </r>
       <r>  -16.4782    1.0000 </r>
       <r>  -16.4022    1.0000 </r>
       <r>  -16.4018    1.0000 </r>
       <r>  -15.4538    1.0000 </r>
       <r>  -15.3817    1.0000 </r>
       <r>  -15.3812    1.0000 </r>
       <r>  -14.5969    1.0000 </r>
       <r>  -14.5804    1.0000 </r>
       <r>  -14.5801    1.0000 </r>
       <r>  -14.5575    1.0000 </r>
       <r>  -14.5560    1.0000 </r>
       <r>  -13.9432    1.0000 </r>
       <r>  -13.3185    1.0000 </r>
       <r>  -13.3051    1.0000 </r>
       <r>  -12.4254    1.0000 </r>
       <r>  -12.3958    1.0000 </r>
       <r>  -12.3954    1.0000 </r>
       <r>  -12.0281    1.0000 </r>
       <r>  -12.0192    1.0000 </r>
       <r>  -11.3981    1.0000 </r>
       <r>  -11.3179    1.0000 </r>
       <r>  -11.1964    1.0000 </r>
       <r>  -11.1350    1.0000 </r>
       <r>  -11.1336    1.0000 </r>
       <r>  -10.5496    1.0000 </r>
       <r>  -10.5420    1.0000 </r>
       <r>  -10.3685    1.0000 </r>
       <r>  -10.1699    1.0000 </r>
       <r>  -10.1526    1.0000 </r>
       <r>  -10.0095    1.0000 </r>
       <r>   -9.6037    1.0000 </r>
       <r>   -9.6018    1.0000 </r>
       <r>   -9.3566    1.0000 </r>
       <r>   -9.2745    1.0000 </r>
       <r>   -9.2740    1.0000 </r>
       <r>   -9.1731    1.0000 </r>
       <r>   -9.1682    1.0000 </r>
       <r>   -9.1656    1.0000 </r>
       <r>   -9.1402    1.0000 </r>
       <r>   -9.0495    1.0000 </r>
       <r>   -8.9970    1.0000 </r>
       <r>   -8.9960    1.0000 </r>
       <r>   -8.6873    1.0000 </r>
       <r>   -8.6866    1.0000 </r>
       <r>   -8.6865    1.0000 </r>
       <r>   -8.5912    1.0000 </r>
       <r>   -8.5907    1.0000 </r>
       <r>   -8.5441    1.0000 </r>
       <r>   -8.4983    1.0000 </r>
       <r>   -8.4980    1.0000 </r>
       <r>   -8.4479    1.0000 </r>
       <r>   -8.3836    1.0000 </r>
       <r>   -8.3530    1.0000 </r>
       <r>   -8.3527    1.0000 </r>
       <r>   -8.3404    1.0000 </r>
       <r>   -8.3335    1.0000 </r>
       <r>   -8.1867    1.0000 </r>
       <r>   -8.0274    1.0000 </r>
       <r>   -8.0261    1.0000 </r>
       <r>   -7.9741    1.0000 </r>
       <r>   -7.9724    1.0000 </r>
       <r>   -7.8915    1.0000 </r>
       <r>   -7.7553    1.0000 </r>
       <r>   -7.7545    1.0000 </r>
       <r>   -7.6584    1.0000 </r>
       <r>   -7.4212    1.0000 </r>
       <r>   -7.4079    1.0000 </r>
       <r>   -7.2663    1.0000 </r>
       <r>   -7.1607    1.0000 </r>
       <r>   -6.8336    1.0000 </r>
       <r>   -6.8331    1.0000 </r>
       <r>   -6.7842    1.0000 </r>
       <r>   -6.7810    1.0000 </r>
       <r>   -6.7249    1.0000 </r>
       <r>   -6.6899    1.0000 </r>
       <r>   -6.3583    1.0000 </r>
       <r>   -6.3542    1.0000 </r>
       <r>   -5.1529    1.0000 </r>
       <r>   -5.1522    1.0000 </r>
       <r>   -5.0376    1.0000 </r>
       <r>   -5.0368    1.0000 </r>
       <r>   -4.7656    1.0000 </r>
       <r>   -4.7638    1.0000 </r>
       <r>   -4.4808    1.0000 </r>
       <r>   -4.4804    1.0000 </r>
       <r>   -4.4790    1.0000 </r>
       <r>   -4.4353    1.0000 </r>
       <r>   -0.4292    0.0000 </r>
       <r>   -0.4284    0.0000 </r>
       <r>   -0.3037    0.0000 </r>
       <r>   -0.3032    0.0000 </r>
       <r>   -0.0458    0.0000 </r>
       <r>   -0.0437    0.0000 </r>
       <r>   -0.0118    0.0000 </r>
       <r>    0.1160    0.0000 </r>
       <r>    0.2599    0.0000 </r>
       <r>    0.2601    0.0000 </r>
       <r>    0.2690    0.0000 </r>
       <r>    0.3878    0.0000 </r>
       <r>    0.7661    0.0000 </r>
       <r>    0.7858    0.0000 </r>
       <r>    0.7953    0.0000 </r>
       <r>    0.9246    0.0000 </r>
       <r>    0.9664    0.0000 </r>
       <r>    1.0087    0.0000 </r>
       <r>    1.0118    0.0000 </r>
       <r>    1.0800    0.0000 </r>
       <r>    1.1115    0.0000 </r>
       <r>    1.2984    0.0000 </r>
       <r>    1.3200    0.0000 </r>
       <r>    1.3286    0.0000 </r>
       <r>    1.4998    0.0000 </r>
       <r>    1.5962    0.0000 </r>
       <r>    1.6123    0.0000 </r>
       <r>    1.7839    0.0000 </r>
       <r>    1.8055    0.0000 </r>
       <r>    1.8111    0.0000 </r>
       <r>    1.8644    0.0000 </r>
       <r>    1.8905    0.0000 </r>
       <r>    2.0144    0.0000 </r>
       <r>    2.1633    0.0000 </r>
       <r>    2.2589    0.0000 </r>
       <r>    2.3003    0.0000 </r>
       <r>    2.3123    0.0000 </r>
       <r>    2.3308    0.0000 </r>
       <r>    2.3891    0.0000 </r>
       <r>    2.3961    0.0000 </r>
       <r>    2.4532    0.0000 </r>
       <r>    2.4702    0.0000 </r>
       <r>    2.4720    0.0000 </r>
       <r>    2.4775    0.0000 </r>
       <r>    2.4904    0.0000 </r>
       <r>    2.5341    0.0000 </r>
       <r>    2.5393    0.0000 </r>
       <r>    2.6081    0.0000 </r>
       <r>    2.7886    0.0000 </r>
       <r>    2.7961    0.0000 </r>
       <r>    2.7974    0.0000 </r>
       <r>    2.8209    0.0000 </r>
       <r>    2.8217    0.0000 </r>
       <r>    2.9239    0.0000 </r>
       <r>    2.9501    0.0000 </r>
      </set>
      <set comment="kpoint 4">
       <r>  -20.9468    1.0000 </r>
       <r>  -20.6238    1.0000 </r>
       <r>  -20.5279    1.0000 </r>
       <r>  -20.4938    1.0000 </r>
       <r>  -19.7466    1.0000 </r>
       <r>  -18.9824    1.0000 </r>
       <r>  -18.9656    1.0000 </r>
       <r>  -18.6760    1.0000 </r>
       <r>  -18.6700    1.0000 </r>
       <r>  -18.6697    1.0000 </r>
       <r>  -17.8065    1.0000 </r>
       <r>  -17.6668    1.0000 </r>
       <r>  -17.5717    1.0000 </r>
       <r>  -16.8680    1.0000 </r>
       <r>  -16.8453    1.0000 </r>
       <r>  -16.8448    1.0000 </r>
       <r>  -16.7340    1.0000 </r>
       <r>  -16.7266    1.0000 </r>
       <r>  -16.4771    1.0000 </r>
       <r>  -16.4026    1.0000 </r>
       <r>  -16.4018    1.0000 </r>
       <r>  -15.4531    1.0000 </r>
       <r>  -15.3821    1.0000 </r>
       <r>  -15.3812    1.0000 </r>
       <r>  -14.5967    1.0000 </r>
       <r>  -14.5804    1.0000 </r>
       <r>  -14.5798    1.0000 </r>
       <r>  -14.5575    1.0000 </r>
       <r>  -14.5541    1.0000 </r>
       <r>  -13.9559    1.0000 </r>
       <r>  -13.3184    1.0000 </r>
       <r>  -13.2889    1.0000 </r>
       <r>  -12.4252    1.0000 </r>
       <r>  -12.3960    1.0000 </r>
       <r>  -12.3954    1.0000 </r>
       <r>  -12.0390    1.0000 </r>
       <r>  -12.0194    1.0000 </r>
       <r>  -11.3937    1.0000 </r>
       <r>  -11.3167    1.0000 </r>
       <r>  -11.1969    1.0000 </r>
       <r>  -11.1366    1.0000 </r>
       <r>  -11.1336    1.0000 </r>
       <r>  -10.5484    1.0000 </r>
       <r>  -10.5410    1.0000 </r>
       <r>  -10.3701    1.0000 </r>
       <r>  -10.1865    1.0000 </r>
       <r>  -10.1529    1.0000 </r>
       <r>   -9.9893    1.0000 </r>
       <r>   -9.6032    1.0000 </r>
       <r>   -9.5990    1.0000 </r>
       <r>   -9.3578    1.0000 </r>
       <r>   -9.2749    1.0000 </r>
       <r>   -9.2736    1.0000 </r>
       <r>   -9.1789    1.0000 </r>
       <r>   -9.1694    1.0000 </r>
       <r>   -9.1659    1.0000 </r>
       <r>   -9.1368    1.0000 </r>
       <r>   -9.0458    1.0000 </r>
       <r>   -8.9981    1.0000 </r>
       <r>   -8.9960    1.0000 </r>
       <r>   -8.6873    1.0000 </r>
       <r>   -8.6857    1.0000 </r>
       <r>   -8.6856    1.0000 </r>
       <r>   -8.5918    1.0000 </r>
       <r>   -8.5907    1.0000 </r>
       <r>   -8.5445    1.0000 </r>
       <r>   -8.4984    1.0000 </r>
       <r>   -8.4977    1.0000 </r>
       <r>   -8.4483    1.0000 </r>
       <r>   -8.3855    1.0000 </r>
       <r>   -8.3532    1.0000 </r>
       <r>   -8.3528    1.0000 </r>
       <r>   -8.3476    1.0000 </r>
       <r>   -8.3333    1.0000 </r>
       <r>   -8.1855    1.0000 </r>
       <r>   -8.0288    1.0000 </r>
       <r>   -8.0261    1.0000 </r>
       <r>   -7.9743    1.0000 </r>
       <r>   -7.9706    1.0000 </r>
       <r>   -7.8882    1.0000 </r>
       <r>   -7.7561    1.0000 </r>
       <r>   -7.7545    1.0000 </r>
       <r>   -7.6531    1.0000 </r>
       <r>   -7.4345    1.0000 </r>
       <r>   -7.4059    1.0000 </r>
       <r>   -7.2673    1.0000 </r>
       <r>   -7.1493    1.0000 </r>
       <r>   -6.8336    1.0000 </r>
       <r>   -6.8325    1.0000 </r>
       <r>   -6.7871    1.0000 </r>
       <r>   -6.7800    1.0000 </r>
       <r>   -6.7273    1.0000 </r>
       <r>   -6.6914    1.0000 </r>
       <r>   -6.3593    1.0000 </r>
       <r>   -6.3505    1.0000 </r>
       <r>   -5.1530    1.0000 </r>
       <r>   -5.1513    1.0000 </r>
       <r>   -5.0384    1.0000 </r>
       <r>   -5.0368    1.0000 </r>
       <r>   -4.7660    1.0000 </r>
       <r>   -4.7617    1.0000 </r>
       <r>   -4.4815    1.0000 </r>
       <r>   -4.4804    1.0000 </r>
       <r>   -4.4795    1.0000 </r>
       <r>   -4.4366    1.0000 </r>
       <r>   -0.4295    0.0000 </r>
       <r>   -0.4278    0.0000 </r>
       <r>   -0.3039    0.0000 </r>
       <r>   -0.3029    0.0000 </r>
       <r>   -0.0462    0.0000 </r>
       <r>   -0.0413    0.0000 </r>
       <r>   -0.0082    0.0000 </r>
       <r>    0.1164    0.0000 </r>
       <r>    0.2594    0.0000 </r>
       <r>    0.2598    0.0000 </r>
       <r>    0.2719    0.0000 </r>
       <r>    0.3843    0.0000 </r>
       <r>    0.7361    0.0000 </r>
       <r>    0.7866    0.0000 </r>
       <r>    0.7877    0.0000 </r>
       <r>    0.9188    0.0000 </r>
       <r>    0.9576    0.0000 </r>
       <r>    1.0248    0.0000 </r>
       <r>    1.0255    0.0000 </r>
       <r>    1.0732    0.0000 </r>
       <r>    1.1311    0.0000 </r>
       <r>    1.3055    0.0000 </r>
       <r>    1.3239    0.0000 </r>
       <r>    1.3413    0.0000 </r>
       <r>    1.5061    0.0000 </r>
       <r>    1.5720    0.0000 </r>
       <r>    1.6030    0.0000 </r>
       <r>    1.7739    0.0000 </r>
       <r>    1.8200    0.0000 </r>
       <r>    1.8220    0.0000 </r>
       <r>    1.8776    0.0000 </r>
       <r>    1.9118    0.0000 </r>
       <r>    2.0169    0.0000 </r>
       <r>    2.1510    0.0000 </r>
       <r>    2.2396    0.0000 </r>
       <r>    2.2795    0.0000 </r>
       <r>    2.3063    0.0000 </r>
       <r>    2.3211    0.0000 </r>
       <r>    2.3774    0.0000 </r>
       <r>    2.3829    0.0000 </r>
       <r>    2.4590    0.0000 </r>
       <r>    2.4666    0.0000 </r>
       <r>    2.4752    0.0000 </r>
       <r>    2.4909    0.0000 </r>
       <r>    2.5009    0.0000 </r>
       <r>    2.5396    0.0000 </r>
       <r>    2.5470    0.0000 </r>
       <r>    2.6152    0.0000 </r>
       <r>    2.7810    0.0000 </r>
       <r>    2.7959    0.0000 </r>
       <r>    2.7976    0.0000 </r>
       <r>    2.8210    0.0000 </r>
       <r>    2.8309    0.0000 </r>
       <r>    2.9082    0.0000 </r>
       <r>    2.9444    0.0000 </r>
      </set>
      <set comment="kpoint 5">
       <r>  -20.9451    1.0000 </r>
       <r>  -20.6390    1.0000 </r>
       <r>  -20.5279    1.0000 </r>
       <r>  -20.4757    1.0000 </r>
       <r>  -19.7571    1.0000 </r>
       <r>  -18.9824    1.0000 </r>
       <r>  -18.9529    1.0000 </r>
       <r>  -18.6759    1.0000 </r>
       <r>  -18.6700    1.0000 </r>
       <r>  -18.6697    1.0000 </r>
       <r>  -17.8452    1.0000 </r>
       <r>  -17.6668    1.0000 </r>
       <r>  -17.5349    1.0000 </r>
       <r>  -16.8678    1.0000 </r>
       <r>  -16.8456    1.0000 </r>
       <r>  -16.8448    1.0000 </r>
       <r>  -16.7396    1.0000 </r>
       <r>  -16.7265    1.0000 </r>
       <r>  -16.4755    1.0000 </r>
       <r>  -16.4031    1.0000 </r>
       <r>  -16.4018    1.0000 </r>
       <r>  -15.4523    1.0000 </r>
       <r>  -15.3828    1.0000 </r>
       <r>  -15.3812    1.0000 </r>
       <r>  -14.5965    1.0000 </r>
       <r>  -14.5804    1.0000 </r>
       <r>  -14.5795    1.0000 </r>
       <r>  -14.5576    1.0000 </r>
       <r>  -14.5514    1.0000 </r>
       <r>  -13.9725    1.0000 </r>
       <r>  -13.3182    1.0000 </r>
       <r>  -13.2673    1.0000 </r>
       <r>  -12.4249    1.0000 </r>
       <r>  -12.3963    1.0000 </r>
       <r>  -12.3954    1.0000 </r>
       <r>  -12.0539    1.0000 </r>
       <r>  -12.0195    1.0000 </r>
       <r>  -11.3878    1.0000 </r>
       <r>  -11.3150    1.0000 </r>
       <r>  -11.1977    1.0000 </r>
       <r>  -11.1388    1.0000 </r>
       <r>  -11.1336    1.0000 </r>
       <r>  -10.5468    1.0000 </r>
       <r>  -10.5395    1.0000 </r>
       <r>  -10.3724    1.0000 </r>
       <r>  -10.2050    1.0000 </r>
       <r>  -10.1532    1.0000 </r>
       <r>   -9.9661    1.0000 </r>
       <r>   -9.6024    1.0000 </r>
       <r>   -9.5952    1.0000 </r>
       <r>   -9.3594    1.0000 </r>
       <r>   -9.2754    1.0000 </r>
       <r>   -9.2731    1.0000 </r>
       <r>   -9.1859    1.0000 </r>
       <r>   -9.1713    1.0000 </r>
       <r>   -9.1662    1.0000 </r>
       <r>   -9.1332    1.0000 </r>
       <r>   -9.0406    1.0000 </r>
       <r>   -8.9996    1.0000 </r>
       <r>   -8.9959    1.0000 </r>
       <r>   -8.6872    1.0000 </r>
       <r>   -8.6846    1.0000 </r>
       <r>   -8.6843    1.0000 </r>
       <r>   -8.5927    1.0000 </r>
       <r>   -8.5907    1.0000 </r>
       <r>   -8.5451    1.0000 </r>
       <r>   -8.4985    1.0000 </r>
       <r>   -8.4973    1.0000 </r>
       <r>   -8.4489    1.0000 </r>
       <r>   -8.3894    1.0000 </r>
       <r>   -8.3561    1.0000 </r>
       <r>   -8.3532    1.0000 </r>
       <r>   -8.3528    1.0000 </r>
       <r>   -8.3329    1.0000 </r>
       <r>   -8.1839    1.0000 </r>
       <r>   -8.0307    1.0000 </r>
       <r>   -8.0261    1.0000 </r>
       <r>   -7.9746    1.0000 </r>
       <r>   -7.9680    1.0000 </r>
       <r>   -7.8840    1.0000 </r>
       <r>   -7.7572    1.0000 </r>
[...]
       <r>   -20.7409     9.5640     3.2815 </r>
       <r>   -20.6529     3.7197     3.6618 </r>
       <r>   -20.5648     3.3978     4.0000 </r>
       <r>   -20.4768    25.8829     6.2786 </r>
       <r>   -20.3888     2.8809     6.5549 </r>
       <r>   -20.3007     2.7618     6.8108 </r>
       <r>   -20.2127     4.4260     7.2563 </r>
       <r>   -20.1246     6.0213     7.9028 </r>
       <r>   -20.0366     5.5097     8.4258 </r>
       <r>   -19.9486     6.8978     9.0776 </r>
       <r>   -19.8605     2.3985     9.3445 </r>
       <r>   -19.7725     3.1689     9.6461 </r>
       <r>   -19.6845     3.4015    10.0000 </r>
       <r>   -19.5964     0.0000    10.0000 </r>
       <r>   -19.5084     0.0000    10.0000 </r>
       <r>   -19.4204     0.0000    10.0000 </r>
       <r>   -19.3323     0.0000    10.0000 </r>
       <r>   -19.2443     0.0000    10.0000 </r>
       <r>   -19.1562     0.0000    10.0000 </r>
       <r>   -19.0682     0.0000    10.0000 </r>
       <r>   -18.9802    15.2046    11.3386 </r>
       <r>   -18.8921     3.2602    12.4877 </r>
       <r>   -18.8041     2.3022    12.7030 </r>
       <r>   -18.7161     1.9411    12.9042 </r>
       <r>   -18.6280    71.6585    19.2420 </r>
       <r>   -18.5400     4.6084    19.7446 </r>
       <r>   -18.4520     3.5181    20.1098 </r>
       <r>   -18.3639     3.1100    20.4406 </r>
       <r>   -18.2759     5.7642    20.9757 </r>
       <r>   -18.1878     1.6389    21.1449 </r>
       <r>   -18.0998     1.5236    21.3037 </r>
       <r>   -18.0118     1.2064    21.4396 </r>
       <r>   -17.9237     1.3241    21.5850 </r>
       <r>   -17.8357     1.4677    21.7322 </r>
       <r>   -17.7477     1.5249    21.8694 </r>
       <r>   -17.6596    21.3614    23.7501 </r>
       <r>   -17.5716     1.7027    24.2171 </r>
       <r>   -17.4836     1.5183    24.3673 </r>
       <r>   -17.3955     1.7145    24.5188 </r>
       <r>   -17.3075     1.4454    24.6939 </r>
       <r>   -17.2194     1.9275    24.8711 </r>
       <r>   -17.1314     4.5034    25.2678 </r>
       <r>   -17.0434     5.2376    25.8316 </r>
       <r>   -16.9553     5.0865    26.3481 </r>
       <r>   -16.8673    14.3514    27.6680 </r>
       <r>   -16.7793    54.9415    33.4536 </r>
       <r>   -16.6912    28.3819    36.0000 </r>
       <r>   -16.6032     0.0000    36.0000 </r>
       <r>   -16.5152     0.0000    36.0000 </r>
       <r>   -16.4271    25.6078    38.2544 </r>
       <r>   -16.3391    34.2697    42.0000 </r>
       <r>   -16.2510     0.0000    42.0000 </r>
       <r>   -16.1630     0.0000    42.0000 </r>
       <r>   -16.0750     0.0000    42.0000 </r>
       <r>   -15.9869     0.0000    42.0000 </r>
       <r>   -15.8989     0.0000    42.0000 </r>
       <r>   -15.8109     0.0000    42.0000 </r>
       <r>   -15.7228     0.0000    42.0000 </r>
       <r>   -15.6348     0.0000    42.0000 </r>
       <r>   -15.5468     0.0000    42.0000 </r>
       <r>   -15.4587     1.1156    42.0982 </r>
       <r>   -15.3707    61.7641    47.8219 </r>
       <r>   -15.2826     0.0000    48.0000 </r>
       <r>   -15.1946     0.0000    48.0000 </r>
       <r>   -15.1066     0.0000    48.0000 </r>
       <r>   -15.0185     0.0000    48.0000 </r>
       <r>   -14.9305     0.0000    48.0000 </r>
       <r>   -14.8425     0.0000    48.0000 </r>
       <r>   -14.7544     0.0000    48.0000 </r>
       <r>   -14.6664     0.0000    48.0000 </r>
       <r>   -14.5784    51.9407    52.5727 </r>
       <r>   -14.4903    31.9212    56.8167 </r>
       <r>   -14.4023     9.5110    57.7055 </r>
       <r>   -14.3142     6.3493    58.3294 </r>
       <r>   -14.2262     7.6087    59.0424 </r>
       <r>   -14.1382     2.4356    59.2813 </r>
       <r>   -14.0501     2.2659    59.5001 </r>
       <r>   -13.9621     2.8886    59.7564 </r>
       <r>   -13.8741     2.2648    60.0000 </r>
       <r>   -13.7860     0.0000    60.0000 </r>
       <r>   -13.6980     0.0000    60.0000 </r>
       <r>   -13.6100     0.0000    60.0000 </r>
       <r>   -13.5219     0.0000    60.0000 </r>
       <r>   -13.4339     0.0000    60.0000 </r>
       <r>   -13.3458     0.0004    60.0000 </r>
       <r>   -13.2578    26.1683    62.3038 </r>
       <r>   -13.1698     1.8330    62.4950 </r>
       <r>   -13.0817     1.5292    62.6346 </r>
       <r>   -12.9937     1.6808    62.7829 </r>
       <r>   -12.9057     1.4847    62.9307 </r>
       <r>   -12.8176     2.3233    63.1380 </r>
       <r>   -12.7296     4.6277    63.6474 </r>
       <r>   -12.6416     2.7457    63.9095 </r>
       <r>   -12.5535     3.2870    64.2229 </r>
       <r>   -12.4655     3.5991    64.5550 </r>
       <r>   -12.3774    72.7673    71.0095 </r>
       <r>   -12.2894     1.8272    71.1959 </r>
       <r>   -12.2014     1.7985    71.3585 </r>
       <r>   -12.1133     2.0814    71.5501 </r>
       <r>   -12.0253    11.3675    72.5675 </r>
       <r>   -11.9373     0.0000    74.0000 </r>
       <r>   -11.8492     0.0000    74.0000 </r>
       <r>   -11.7612     0.0000    74.0000 </r>
       <r>   -11.6732     0.0000    74.0000 </r>
       <r>   -11.5851     0.0000    74.0000 </r>
       <r>   -11.4971     0.0000    74.0000 </r>
       <r>   -11.4090     0.2494    74.0220 </r>
       <r>   -11.3210     9.0697    74.8771 </r>
       <r>   -11.2330    37.6056    78.4618 </r>
       <r>   -11.1449    31.4949    81.7254 </r>
       <r>   -11.0569    23.9072    84.0000 </r>
       <r>   -10.9689     0.0000    84.0000 </r>
       <r>   -10.8808     0.0000    84.0000 </r>
       <r>   -10.7928     0.0000    84.0000 </r>
       <r>   -10.7048     0.0000    84.0000 </r>
       <r>   -10.6167     0.0000    84.0000 </r>
       <r>   -10.5287    13.3598    85.1761 </r>
       <r>   -10.4406    34.9492    88.5546 </r>
       <r>   -10.3526    25.1249    91.1774 </r>
       <r>   -10.2646     3.5900    91.5201 </r>
       <r>   -10.1765     3.2128    91.8496 </r>
       <r>   -10.0885    23.8554    94.0000 </r>
       <r>   -10.0005     2.1331    94.1878 </r>
       <r>    -9.9124     2.4469    94.4174 </r>
       <r>    -9.8244     2.1324    94.6211 </r>
       <r>    -9.7364     2.4562    94.8503 </r>
       <r>    -9.6483     7.1704    95.5016 </r>
       <r>    -9.5603    24.1435    97.6610 </r>
       <r>    -9.4722    21.5387    99.8053 </r>
       <r>    -9.3842    24.2702   102.1377 </r>
       <r>    -9.2962    11.4757   103.3205 </r>
       <r>    -9.2081    57.8729   108.4707 </r>
       <r>    -9.1201    39.5344   112.4972 </r>
       <r>    -9.0321    32.1738   115.4728 </r>
       <r>    -8.9440    35.0421   118.7958 </r>
       <r>    -8.8560     6.6705   119.4229 </r>
       <r>    -8.7680     5.6198   120.0000 </r>
       <r>    -8.6799    34.8550   123.0685 </r>
       <r>    -8.5919    65.6014   129.7121 </r>
       <r>    -8.5038    33.1559   133.9891 </r>
       <r>    -8.4158    46.8603   139.5717 </r>
       <r>    -8.3278    83.7159   146.9736 </r>
       <r>    -8.2397     0.0000   148.0000 </r>
       <r>    -8.1517    10.7291   148.9445 </r>
       <r>    -8.0637    23.7891   151.1893 </r>
       <r>    -7.9756    47.2172   155.4621 </r>
       <r>    -7.8876    12.0548   157.3677 </r>
       <r>    -7.7996    26.0866   160.0113 </r>
       <r>    -7.7115    51.9859   164.6021 </r>
       <r>    -7.6235    10.8422   165.6319 </r>
       <r>    -7.5354     6.1930   166.2526 </r>
       <r>    -7.4474    13.4484   167.5206 </r>
       <r>    -7.3594    12.0997   168.8330 </r>
       <r>    -7.2713    30.3362   171.6909 </r>
       <r>    -7.1833     0.0405   172.0036 </r>
       <r>    -7.0953     4.9513   172.4395 </r>
       <r>    -7.0072     4.3206   172.8804 </r>
       <r>    -6.9192    12.4209   174.0334 </r>
       <r>    -6.8312    39.3195   177.4950 </r>
       <r>    -6.7431    48.5509   183.0228 </r>
       <r>    -6.6551    21.6997   185.3280 </r>
       <r>    -6.5670     4.1077   185.7292 </r>
       <r>    -6.4790     5.3490   186.2413 </r>
       <r>    -6.3910     9.1057   187.1026 </r>
       <r>    -6.3029    15.5825   188.6462 </r>
       <r>    -6.2149    14.3691   190.0000 </r>
       <r>    -6.1269     0.0000   190.0000 </r>
       <r>    -6.0388     0.0000   190.0000 </r>
       <r>    -5.9508     0.0000   190.0000 </r>
       <r>    -5.8628     0.0000   190.0000 </r>
       <r>    -5.7747     0.0000   190.0000 </r>
       <r>    -5.6867     0.0000   190.0000 </r>
       <r>    -5.5986     0.0000   190.0000 </r>
       <r>    -5.5106     0.0000   190.0000 </r>
       <r>    -5.4226     0.0000   190.0000 </r>
       <r>    -5.3345     0.0000   190.0000 </r>
       <r>    -5.2465     0.0000   190.0000 </r>
       <r>    -5.1585     6.7560   190.5948 </r>
       <r>    -5.0704    29.1846   194.8514 </r>
       <r>    -4.9824    32.4613   198.0000 </r>
       <r>    -4.8943     0.0000   198.0000 </r>
       <r>    -4.8063     0.0004   198.0000 </r>
       <r>    -4.7183    30.8543   200.7163 </r>
       <r>    -4.6302    11.6214   201.8243 </r>
       <r>    -4.5422    13.2915   203.0768 </r>
       <r>    -4.4542    64.0136   208.7724 </r>
       <r>    -4.3661     5.5540   210.0000 </r>
       <r>    -4.2781     0.0000   210.0000 </r>
       <r>    -4.1901     0.0000   210.0000 </r>
       <r>    -4.1020     0.0000   210.0000 </r>
       <r>    -4.0140     0.0000   210.0000 </r>
       <r>    -3.9259     0.0000   210.0000 </r>
       <r>    -3.8379     0.0000   210.0000 </r>
       <r>    -3.7499     0.0000   210.0000 </r>
       <r>    -3.6618     0.0000   210.0000 </r>
       <r>    -3.5738     0.0000   210.0000 </r>
       <r>    -3.4858     0.0000   210.0000 </r>
       <r>    -3.3977     0.0000   210.0000 </r>
       <r>    -3.3097     0.0000   210.0000 </r>
       <r>    -3.2217     0.0000   210.0000 </r>
       <r>    -3.1336     0.0000   210.0000 </r>
       <r>    -3.0456     0.0000   210.0000 </r>
       <r>    -2.9575     0.0000   210.0000 </r>
       <r>    -2.8695     0.0000   210.0000 </r>
       <r>    -2.7815     0.0000   210.0000 </r>
       <r>    -2.6934     0.0000   210.0000 </r>
       <r>    -2.6054     0.0000   210.0000 </r>
       <r>    -2.5174     0.0000   210.0000 </r>
       <r>    -2.4293     0.0000   210.0000 </r>
       <r>    -2.3413     0.0000   210.0000 </r>
       <r>    -2.2533     0.0000   210.0000 </r>
       <r>    -2.1652     0.0000   210.0000 </r>
       <r>    -2.0772     0.0000   210.0000 </r>
       <r>    -1.9891     0.0000   210.0000 </r>
       <r>    -1.9011     0.0000   210.0000 </r>
       <r>    -1.8131     0.0000   210.0000 </r>
       <r>    -1.7250     0.0000   210.0000 </r>
       <r>    -1.6370     0.0000   210.0000 </r>
       <r>    -1.5490     0.0000   210.0000 </r>
       <r>    -1.4609     0.0000   210.0000 </r>
       <r>    -1.3729     0.0000   210.0000 </r>
       <r>    -1.2849     0.0000   210.0000 </r>
       <r>    -1.1968     0.0000   210.0000 </r>
       <r>    -1.1088     0.0000   210.0000 </r>
       <r>    -1.0207     0.0000   210.0000 </r>
       <r>    -0.9327     0.0000   210.0000 </r>
       <r>    -0.8447     0.0000   210.0000 </r>
       <r>    -0.7566     0.0000   210.0000 </r>
       <r>    -0.6686     0.0000   210.0000 </r>
       <r>    -0.5806     0.0000   210.0000 </r>
       <r>    -0.4925     0.0000   210.0000 </r>
       <r>    -0.4045    40.5394   213.5689 </r>
       <r>    -0.3165    10.3557   214.9117 </r>
       <r>    -0.2284    29.3517   218.0000 </r>
       <r>    -0.1404     0.0000   218.0000 </r>
       <r>    -0.0523     7.2963   218.6423 </r>
       <r>     0.0357    16.3272   221.5821 </r>
       <r>     0.1237    20.2049   223.5404 </r>
       <r>     0.2118    23.5785   225.9509 </r>
       <r>     0.2998    70.3581   232.1959 </r>
       <r>     0.3878    14.7609   233.9084 </r>
       <r>     0.4759    11.8305   235.1754 </r>
       <r>     0.5639    17.3931   236.8313 </r>
       <r>     0.6519     8.4552   237.6815 </r>
       <r>     0.7400    11.1326   238.7226 </r>
       <r>     0.8280    16.8726   240.2906 </r>
       <r>     0.9161    16.2883   241.9443 </r>
       <r>     1.0041    30.5188   244.7649 </r>
       <r>     1.0921    20.5118   246.9213 </r>
       <r>     1.1802    19.8089   248.7810 </r>
       <r>     1.2682    16.3891   250.3788 </r>
       <r>     1.3562    28.2787   253.1247 </r>
       <r>     1.4443    21.7376   255.3568 </r>
       <r>     1.5323    27.7431   258.0152 </r>
       <r>     1.6203    26.2689   260.6594 </r>
       <r>     1.7084    31.7570   263.7743 </r>
       <r>     1.7964    28.7345   266.4373 </r>
       <r>     1.8845    42.1107   270.5661 </r>
       <r>     1.9725    41.4058   274.5968 </r>
       <r>     2.0605    26.4350   277.1469 </r>
       <r>     2.1486    31.3385   280.0415 </r>
       <r>     2.2366    34.3286   283.3414 </r>
       <r>     2.3246    47.8950   287.8637 </r>
       <r>     2.4127    52.7349   292.9276 </r>
       <r>     2.5007    42.2314   297.1314 </r>
       <r>     2.5887    40.8354   300.9752 </r>
       <r>     2.6768    46.2495   305.3495 </r>
       <r>     2.7648    32.6478   308.5536 </r>
       <r>     2.8529    62.4551   314.2912 </r>
       <r>     2.9409    28.0487   317.0134 </r>
       <r>     3.0289    26.4933   319.7951 </r>
       <r>     3.1170     1.8641   320.0000 </r>
       <r>     3.2050     0.0000   320.0000 </r>
       <r>     3.2930     0.0000   320.0000 </r>
       <r>     3.3811     0.0000   320.0000 </r>
       <r>     3.4691     0.0000   320.0000 </r>
       <r>     3.5571     0.0000   320.0000 </r>
       <r>     3.6452     0.0000   320.0000 </r>
       <r>     3.7332     0.0000   320.0000 </r>
       <r>     3.8213     0.0000   320.0000 </r>
       <r>     3.9093     0.0000   320.0000 </r>
       <r>     3.9973     0.0000   320.0000 </r>
       <r>     4.0854     0.0000   320.0000 </r>
       <r>     4.1734     0.0000   320.0000 </r>
       <r>     4.2614     0.0000   320.0000 </r>
      </set>
     </set>
    </array>
   </total>
  </dos>
 </calculation>
 <structure name="finalpos" >
  <crystal>
   <varray name="basis" >
    <v>      14.88346325       0.00000000       0.00000000 </v>
    <v>      -7.44173163      12.88945727       0.00000000 </v>
    <v>       0.00000000       0.00000000      20.00000000 </v>
   </varray>
   <i name="volume">   3836.79527424 </i>
   <varray name="rec_basis" >
    <v>       0.06718866       0.03879139       0.00000000 </v>
    <v>       0.00000000       0.07758279       0.00000000 </v>
    <v>       0.00000000       0.00000000       0.05000000 </v>
   </varray>
  </crystal>
  <varray name="positions" >
   <v>       0.42608641       0.27251478       0.33087228 </v>
   <v>       0.42608641       0.15357163       0.33087228 </v>
   <v>       0.42608094       0.15376259       0.64560003 </v>
   <v>       0.42608094       0.27231834       0.64560003 </v>
   <v>       0.57024530       0.42975470       0.48784137 </v>
   <v>       0.57024530       0.14049061       0.48784137 </v>
   <v>       0.52948400       0.26474200       0.36889079 </v>
   <v>       0.53050543       0.26525271       0.60809488 </v>
   <v>       0.73525800       0.47051600       0.36889079 </v>
   <v>       0.72748522       0.57391359       0.33087228 </v>
   <v>       0.73525800       0.26474200       0.36889079 </v>
   <v>       0.72748522       0.15357163       0.33087228 </v>
   <v>       0.73474729       0.46949457       0.60809488 </v>
   <v>       0.72768166       0.57391906       0.64560003 </v>
   <v>       0.73474729       0.26525271       0.60809488 </v>
   <v>       0.72768166       0.15376259       0.64560003 </v>
   <v>       0.85950939       0.42975470       0.48784137 </v>
   <v>       0.80715308       0.90357654       0.48938308 </v>
   <v>       0.09642346       0.90357654       0.48938308 </v>
   <v>       0.09642346       0.19284692       0.48938308 </v>
   <v>       0.86792444       0.73584889       0.31875482 </v>
   <v>       0.97701000       0.83592036       0.36090941 </v>
   <v>       0.85891035       0.83592036       0.36090941 </v>
   <v>       0.84642837       0.57391359       0.33087228 </v>
   <v>       0.86792444       0.13207556       0.31875482 </v>
   <v>       0.85891035       0.02299000       0.36090941 </v>
   <v>       0.97701000       0.14108965       0.36090941 </v>
   <v>       0.84642837       0.27251478       0.33087228 </v>
   <v>       0.26415111       0.13207556       0.31875482 </v>
   <v>       0.16407964       0.14108965       0.36090941 </v>
   <v>       0.16407964       0.02299000       0.36090941 </v>
   <v>       0.93109556       0.86219113       0.60930655 </v>
   <v>       0.93799896       0.75744627       0.64642099 </v>
   <v>       0.81944731       0.75744627       0.64642099 </v>
   <v>       0.84623741       0.57391906       0.64560003 </v>
   <v>       0.93109556       0.06890444       0.60930655 </v>
   <v>       0.81944731       0.06200104       0.64642099 </v>
   <v>       0.93799896       0.18055269       0.64642099 </v>
   <v>       0.84623741       0.27231834       0.64560003 </v>
   <v>       0.13780887       0.06890444       0.60930655 </v>
   <v>       0.24255373       0.18055269       0.64642099 </v>
   <v>       0.24255373       0.06200104       0.64642099 </v>
   <v>       0.44149033       0.22074516       0.48810552 </v>
   <v>       0.38709193       0.19354596       0.42678767 </v>
   <v>       0.44536171       0.22268086       0.36114987 </v>
   <v>       0.38849287       0.19424644       0.54969011 </v>
   <v>       0.44629488       0.22314744       0.61529517 </v>
   <v>       0.55737534       0.27868767       0.48784805 </v>
   <v>       0.61260447       0.22520894       0.48784001 </v>
   <v>       0.61260447       0.38739553       0.48784001 </v>
   <v>       0.72131233       0.27868767       0.48784805 </v>
   <v>       0.72131233       0.44262466       0.48784805 </v>
   <v>       0.77479106       0.38739553       0.48784001 </v>
   <v>       0.10922598       0.05461299       0.48893618 </v>
   <v>       0.05405088       0.10810176       0.48883333 </v>
   <v>       0.94538701       0.05461299       0.48893618 </v>
   <v>       0.89189824       0.94594912       0.48883333 </v>
   <v>       0.94538701       0.89077402       0.48893618 </v>
   <v>       0.05405088       0.94594912       0.48883333 </v>
   <v>       0.77925484       0.55850967       0.48810552 </v>
   <v>       0.80645404       0.61290807       0.42678767 </v>
   <v>       0.86108767       0.72217534       0.42747628 </v>
   <v>       0.88752288       0.77504577       0.48921269 </v>
   <v>       0.89233605       0.78467210       0.36352163 </v>
   <v>       0.77731914       0.55463829       0.36114987 </v>
   <v>       0.77925484       0.22074516       0.48810552 </v>
   <v>       0.80645404       0.19354596       0.42678767 </v>
   <v>       0.86108767       0.13891233       0.42747628 </v>
   <v>       0.88752288       0.11247712       0.48921269 </v>
   <v>       0.89233605       0.10766395       0.36352163 </v>
   <v>       0.77731914       0.22268086       0.36114987 </v>
   <v>       0.27782466       0.13891233       0.42747628 </v>
   <v>       0.22495423       0.11247712       0.48921269 </v>
   <v>       0.21532790       0.10766395       0.36352163 </v>
   <v>       0.86047287       0.72094574       0.55025816 </v>
   <v>       0.80575356       0.61150713       0.54969011 </v>
   <v>       0.88893709       0.77787418       0.61617811 </v>
   <v>       0.77685256       0.55370512       0.61529517 </v>
   <v>       0.86047287       0.13952713       0.55025816 </v>
   <v>       0.80575356       0.19424644       0.54969011 </v>
   <v>       0.88893709       0.11106291       0.61617811 </v>
   <v>       0.77685256       0.22314744       0.61529517 </v>
   <v>       0.27905426       0.13952713       0.55025816 </v>
   <v>       0.22212582       0.11106291       0.61617811 </v>
  </varray>
 </structure>
</modeling>
