<?xml version="1.0" encoding="ISO-8859-1"?>
<modeling>
 <generator>
  <i name="program" type="string">vasp </i>
  <i name="version" type="string">5.4.4.18Apr17-6-g9f103f2a35  </i>
  <i name="subversion" type="string">(build Jun 07 2020 16:50:00) complex            parallel </i>
  <i name="platform" type="string">LinuxIFC </i>
  <i name="date" type="string">2023 02 02 </i>
  <i name="time" type="string">13:56:48 </i>
 </generator>
 <incar>
  <i type="string" name="SYSTEM">Simulation for cell shape cell volume r</i>
  <i type="int" name="ISTART">     1</i>
  <i type="string" name="PREC">high</i>
  <i type="string" name="ALGO">48</i>
  <i type="int" name="ICHARG">    11</i>
  <i type="int" name="NELM">   200</i>
  <i type="int" name="IBRION">    -1</i>
  <i name="EDIFF">      0.00001000</i>
  <i name="EDIFFG">     -0.01000000</i>
  <i type="int" name="NSW">     0</i>
  <i type="int" name="ISIF">     2</i>
  <i name="ENCUT">    500.00000000</i>
  <i name="POTIM">      0.30000000</i>
  <i type="string" name="LREAL">A</i>
  <i type="int" name="ISMEAR">     0</i>
  <i name="SIGMA">      0.01000000</i>
  <i type="int" name="NWRITE">     0</i>
  <i type="logical" name="LWAVE"> T  </i>
  <i type="logical" name="LCHARG"> T  </i>
  <v type="int" name="KPOINT_BSE">    -1     0     0     0</v>
  <i type="int" name="NELM">   200</i>
  <i type="string" name="GGA">PE</i>
 </incar>
 <structure name="primitive_cell" >
  <crystal>
   <varray name="basis" >
    <v>      29.59274264       0.00021798       0.00000000 </v>
    <v>     -14.79620162      25.61571828       0.00000000 </v>
    <v>       0.00000000       0.00000000      20.00000000 </v>
   </varray>
   <i name="volume">  15160.85167857 </i>
   <varray name="rec_basis" >
    <v>       0.03379193       0.01951896       0.00000000 </v>
    <v>      -0.00000029       0.03903836       0.00000000 </v>
    <v>       0.00000000       0.00000000       0.05000000 </v>
   </varray>
  </crystal>
  <varray name="positions" >
   <v>       0.06204273       0.47607403      -0.40054225 </v>
   <v>       0.04016425       0.49312842      -0.42229184 </v>
   <v>       0.06738355      -0.45797191      -0.45310495 </v>
   <v>      -0.01430446       0.46562858      -0.41978657 </v>
   <v>      -0.01293085       0.41362118      -0.34613387 </v>
   <v>       0.14726157      -0.46091997      -0.46715342 </v>
   <v>      -0.04024128       0.41433214      -0.38271407 </v>
   <v>       0.12422205      -0.43137112      -0.46485979 </v>
   <v>      -0.05234340       0.38129569      -0.41711148 </v>
   <v>       0.03940019      -0.43546546      -0.47931522 </v>
   <v>      -0.04244912       0.48709868      -0.45148866 </v>
   <v>      -0.07546897       0.40772157      -0.35617439 </v>
   <v>      -0.01504264      -0.46198214      -0.48018763 </v>
   <v>       0.19414511      -0.43743574      -0.49728357 </v>
   <v>       0.14890301      -0.37937637      -0.47642428 </v>
   <v>       0.21745812      -0.49097193      -0.40388532 </v>
   <v>       0.06107549      -0.39700098       0.49765302 </v>
   <v>      -0.09960359       0.45511958      -0.46203816 </v>
   <v>       0.22719554      -0.46182027       0.49524326 </v>
   <v>       0.24031029      -0.48213497      -0.44980627 </v>
   <v>      -0.11982900       0.40351777      -0.47454161 </v>
   <v>       0.19689123      -0.35916240       0.49759951 </v>
   <v>       0.21830736      -0.38813869       0.47958851 </v>
   <v>       0.21268026      -0.32243328      -0.36747581 </v>
   <v>      -0.04035566      -0.43517510       0.48459106 </v>
   <v>      -0.14309924       0.31478960      -0.39509395 </v>
   <v>      -0.01017212      -0.39939863       0.46046779 </v>
   <v>      -0.12814477       0.47925144      -0.46279679 </v>
   <v>       0.17686078      -0.29392680      -0.39784734 </v>
   <v>      -0.06803087      -0.45997914       0.44587873 </v>
   <v>      -0.06261805      -0.42499575      -0.48078385 </v>
   <v>       0.25521979      -0.45284589       0.43556445 </v>
   <v>       0.27202339       0.48671710      -0.34859769 </v>
   <v>       0.21664664      -0.28618722      -0.38836866 </v>
   <v>      -0.17848612       0.34462104      -0.36751576 </v>
   <v>       0.28619785      -0.48516817      -0.45001683 </v>
   <v>       0.24360390      -0.43909844       0.39174000 </v>
   <v>      -0.16782561       0.37936332       0.49892484 </v>
   <v>       0.23432522      -0.30214790       0.49121212 </v>
   <v>      -0.18274189       0.30773873      -0.38637093 </v>
   <v>       0.30251845       0.49898521      -0.38687370 </v>
   <v>       0.24910657      -0.26999794      -0.45127260 </v>
   <v>       0.20461379      -0.33884485       0.36339580 </v>
   <v>      -0.17400228       0.45275153      -0.49505300 </v>
   <v>       0.23474701      -0.25566465      -0.35009248 </v>
   <v>      -0.20091446       0.27827350      -0.34687544 </v>
   <v>      -0.20188699       0.32164718       0.49289942 </v>
   <v>       0.30032742      -0.45627921       0.43276865 </v>
   <v>      -0.19307729       0.40452451       0.47977858 </v>
   <v>       0.31820945      -0.46810691       0.49233647 </v>
   <v>      -0.21509533       0.28993575      -0.44926528 </v>
   <v>       0.26426159      -0.28440810       0.43180175 </v>
   <v>       0.26328822      -0.34104065       0.36295241 </v>
   <v>       0.24722122      -0.31473734       0.36720378 </v>
   <v>       0.31033551       0.46693887      -0.39594973 </v>
   <v>       0.33871913      -0.46854655      -0.36619063 </v>
   <v>      -0.17375144       0.35860594       0.36524857 </v>
   <v>       0.29808790      -0.22413891      -0.45095344 </v>
   <v>      -0.20359022      -0.49930873      -0.40141725 </v>
   <v>      -0.23169728       0.30212636       0.43358065 </v>
   <v>      -0.21080890       0.47276423       0.49746936 </v>
   <v>       0.30342770      -0.45655691       0.32540837 </v>
   <v>       0.33045518      -0.44344406       0.36805404 </v>
   <v>      -0.21601055       0.33189959       0.36851390 </v>
   <v>       0.26125224      -0.28783396       0.32442106 </v>
   <v>       0.37521173      -0.44853590       0.49860547 </v>
   <v>       0.31280559      -0.23928024       0.43467605 </v>
   <v>      -0.26254481       0.24243669      -0.44864267 </v>
   <v>       0.31197363      -0.20121072      -0.40507271 </v>
   <v>      -0.22625520       0.49094209      -0.44757301 </v>
   <v>       0.33169475      -0.21112398       0.49430165 </v>
   <v>       0.35680396      -0.40110275       0.36333621 </v>
   <v>      -0.23509175       0.35541061       0.36278782 </v>
   <v>      -0.27527045       0.21947646      -0.40268243 </v>
   <v>      -0.22539954       0.45049309       0.39367048 </v>
   <v>       0.40427034      -0.39826112       0.47996402 </v>
   <v>       0.35445041      -0.46207486       0.36450383 </v>
   <v>      -0.22779186       0.30456957       0.32625158 </v>
   <v>      -0.23865489       0.46264432       0.43746768 </v>
   <v>       0.39538743      -0.47617359      -0.47488580 </v>
   <v>      -0.27894402       0.25552043       0.43686720 </v>
   <v>       0.33830005      -0.22777831       0.39100277 </v>
   <v>      -0.29644916       0.22743393       0.49672889 </v>
   <v>       0.38910979      -0.17795261      -0.49806246 </v>
   <v>      -0.27386177       0.49065377      -0.44818700 </v>
   <v>       0.41445593      -0.20184004       0.47857276 </v>
   <v>       0.45340710      -0.37294811      -0.49641975 </v>
   <v>      -0.26312789      -0.48514987      -0.34511443 </v>
   <v>      -0.30456647       0.24251720       0.39326618 </v>
   <v>       0.44733519      -0.44878813      -0.46319258 </v>
   <v>      -0.28537543       0.46305462       0.43420652 </v>
   <v>       0.41697715      -0.24758311       0.36263085 </v>
   <v>       0.47772932      -0.31551069       0.49571649 </v>
   <v>       0.45508546      -0.32235621       0.39214243 </v>
   <v>       0.41322222       0.45377614       0.49913711 </v>
   <v>      -0.29218743      -0.49574450      -0.38498793 </v>
   <v>       0.46883889      -0.29674126       0.43573739 </v>
   <v>       0.47679037      -0.39618036      -0.46555455 </v>
   <v>      -0.30524121       0.47272646       0.49365509 </v>
   <v>      -0.35322226       0.19072463      -0.49551419 </v>
   <v>       0.41229965      -0.13121201      -0.46747660 </v>
   <v>       0.47228761      -0.24819002       0.43235262 </v>
   <v>       0.49789364      -0.28181473      -0.44955248 </v>
   <v>       0.46471790      -0.18048554       0.49721858 </v>
   <v>       0.48423191      -0.19642044      -0.36729247 </v>
   <v>       0.48416062      -0.21808278       0.49159091 </v>
   <v>      -0.49342795      -0.29562967      -0.40334165 </v>
   <v>      -0.49898652      -0.23283435      -0.45038536 </v>
   <v>       0.45933400      -0.23137938       0.36734639 </v>
   <v>      -0.32925548       0.47136085      -0.36707180 </v>
   <v>      -0.28750716       0.46478347       0.32686801 </v>
   <v>       0.47401187      -0.47894168      -0.45135625 </v>
   <v>      -0.29908572      -0.46296163      -0.39290279 </v>
   <v>      -0.37243422       0.14473972      -0.46360458 </v>
   <v>      -0.38242923       0.20994255       0.47995192 </v>
   <v>       0.45167895       0.47062665      -0.47780949 </v>
   <v>      -0.31493913       0.44927429       0.36900246 </v>
   <v>      -0.33860420       0.40669201       0.36312041 </v>
   <v>      -0.34234733       0.07922185      -0.48354871 </v>
   <v>      -0.48329890      -0.20035407      -0.38750191 </v>
   <v>       0.47249012      -0.24547193       0.32493658 </v>
   <v>       0.46491021      -0.10793654      -0.46527681 </v>
   <v>      -0.47123961      -0.21843538      -0.34878481 </v>
   <v>       0.47775075      -0.18878813       0.36332317 </v>
   <v>       0.49236713      -0.13247015      -0.47671977 </v>
   <v>       0.41601905       0.38512112       0.46150448 </v>
   <v>      -0.36296547       0.44909871       0.49939558 </v>
   <v>      -0.39130597       0.25035463       0.36282094 </v>
   <v>      -0.38817750       0.39872324       0.48000271 </v>
   <v>      -0.37272144       0.08474079       0.44397399 </v>
   <v>      -0.34146105       0.46503762       0.36566117 </v>
   <v>      -0.47712821      -0.45719390      -0.42046467 </v>
   <v>      -0.46022837      -0.41832106      -0.39851001 </v>
   <v>       0.43471894      -0.04582698      -0.40027519 </v>
   <v>      -0.37513963       0.05698663       0.48228321 </v>
   <v>      -0.43283827       0.18439006       0.49911488 </v>
   <v>       0.47839317       0.44288913      -0.47892414 </v>
   <v>      -0.45116993      -0.16054986      -0.39673432 </v>
   <v>      -0.42510692       0.11607267      -0.46267502 </v>
   <v>       0.45185937       0.39086660       0.48556656 </v>
   <v>      -0.45539625       0.19537033      -0.36696719 </v>
   <v>      -0.38710414       0.47293871      -0.47397141 </v>
   <v>      -0.36976406       0.02689027       0.45752828 </v>
   <v>       0.44187928       0.35833774      -0.48001414 </v>
   <v>      -0.45672947       0.21824952       0.49363862 </v>
   <v>       0.49503475      -0.05103912      -0.45374579 </v>
   <v>      -0.44724837       0.24776577       0.43421576 </v>
   <v>      -0.43382970       0.23179236       0.36888857 </v>
   <v>      -0.43625907       0.36953992      -0.49440161 </v>
   <v>      -0.45657206       0.13622860      -0.47481359 </v>
   <v>      -0.44666569       0.29498143       0.43767399 </v>
   <v>      -0.43458299       0.32044946       0.39392526 </v>
   <v>       0.47349159      -0.02388196      -0.42247430 </v>
   <v>      -0.45648877       0.31271435       0.49787657 </v>
   <v>      -0.47458581       0.23160217      -0.44807688 </v>
   <v>      -0.44947693      -0.48401850      -0.41817527 </v>
   <v>      -0.47470738       0.27901351      -0.44723313 </v>
   <v>      -0.42690966       0.03151428      -0.48165873 </v>
   <v>      -0.44996295       0.18943009       0.36553514 </v>
   <v>      -0.45023281       0.05885569      -0.45231920 </v>
   <v>      -0.47071418       0.46650337      -0.45019422 </v>
   <v>      -0.39176564      -0.48743585      -0.35445961 </v>
   <v>       0.47678179       0.38833001       0.44675234 </v>
   <v>      -0.36519147      -0.43784379      -0.41538759 </v>
   <v>      -0.48828457       0.19948290      -0.38502327 </v>
   <v>      -0.44924849       0.24390969       0.32685136 </v>
   <v>      -0.48434709       0.29191021      -0.40096895 </v>
   <v>      -0.43857801       0.44151027      -0.46096343 </v>
   <v>      -0.49909922       0.21776077      -0.34514296 </v>
   <v>      -0.46250205       0.38884784      -0.46143299 </v>
   <v>       0.44744336       0.02918173      -0.34568776 </v>
   <v>      -0.43802319      -0.04456125       0.49587571 </v>
   <v>      -0.45471189      -0.02295249      -0.48066532 </v>
   <v>      -0.49599107       0.09176928      -0.35607310 </v>
   <v>      -0.39824468      -0.45872546      -0.38102330 </v>
   <v>      -0.39749088      -0.43067426      -0.34444133 </v>
   <v>       0.47905657       0.15976125      -0.39315679 </v>
   <v>      -0.49959973       0.03061811      -0.42004179 </v>
   <v>       0.47524047       0.05650928      -0.38246094 </v>
   <v>       0.45409932       0.06856429      -0.41654566 </v>
  </varray>
 </structure>
 <varray name="primitive_index" >
  <v type="int" >        1 </v>
  <v type="int" >       74 </v>
  <v type="int" >       73 </v>
  <v type="int" >      100 </v>
  <v type="int" >        9 </v>
  <v type="int" >      163 </v>
  <v type="int" >      101 </v>
  <v type="int" >       76 </v>
  <v type="int" >        8 </v>
  <v type="int" >       75 </v>
  <v type="int" >      131 </v>
  <v type="int" >       10 </v>
  <v type="int" >      130 </v>
  <v type="int" >       77 </v>
  <v type="int" >      164 </v>
  <v type="int" >        6 </v>
  <v type="int" >        2 </v>
  <v type="int" >       92 </v>
  <v type="int" >       84 </v>
  <v type="int" >       82 </v>
  <v type="int" >      173 </v>
  <v type="int" >       78 </v>
  <v type="int" >      165 </v>
  <v type="int" >        5 </v>
  <v type="int" >      132 </v>
  <v type="int" >       29 </v>
  <v type="int" >       39 </v>
  <v type="int" >      172 </v>
  <v type="int" >        3 </v>
  <v type="int" >       40 </v>
  <v type="int" >       41 </v>
  <v type="int" >      149 </v>
  <v type="int" >       24 </v>
  <v type="int" >       81 </v>
  <v type="int" >       30 </v>
  <v type="int" >      115 </v>
  <v type="int" >       57 </v>
  <v type="int" >       93 </v>
  <v type="int" >       80 </v>
  <v type="int" >      121 </v>
  <v type="int" >      117 </v>
  <v type="int" >       79 </v>
  <v type="int" >        7 </v>
  <v type="int" >       91 </v>
  <v type="int" >        4 </v>
  <v type="int" >       28 </v>
  <v type="int" >      120 </v>
  <v type="int" >      148 </v>
  <v type="int" >      174 </v>
  <v type="int" >      116 </v>
  <v type="int" >      119 </v>
  <v type="int" >      142 </v>
  <v type="int" >       52 </v>
  <v type="int" >       83 </v>
  <v type="int" >       25 </v>
  <v type="int" >       26 </v>
  <v type="int" >       62 </v>
  <v type="int" >      110 </v>
  <v type="int" >       35 </v>
  <v type="int" >      152 </v>
  <v type="int" >      159 </v>
  <v type="int" >       59 </v>
  <v type="int" >      150 </v>
  <v type="int" >      154 </v>
  <v type="int" >       51 </v>
  <v type="int" >       90 </v>
  <v type="int" >      143 </v>
  <v type="int" >      118 </v>
  <v type="int" >       19 </v>
  <v type="int" >      126 </v>
  <v type="int" >      141 </v>
  <v type="int" >       60 </v>
  <v type="int" >       64 </v>
  <v type="int" >       27 </v>
  <v type="int" >       69 </v>
  <v type="int" >      171 </v>
  <v type="int" >       58 </v>
  <v type="int" >       63 </v>
  <v type="int" >      161 </v>
  <v type="int" >      170 </v>
  <v type="int" >      153 </v>
  <v type="int" >       50 </v>
  <v type="int" >      151 </v>
  <v type="int" >       85 </v>
  <v type="int" >      127 </v>
  <v type="int" >      168 </v>
  <v type="int" >       88 </v>
  <v type="int" >       36 </v>
  <v type="int" >       61 </v>
  <v type="int" >       89 </v>
  <v type="int" >      160 </v>
  <v type="int" >       56 </v>
  <v type="int" >      144 </v>
  <v type="int" >       53 </v>
  <v type="int" >       46 </v>
  <v type="int" >      129 </v>
  <v type="int" >      146 </v>
  <v type="int" >      169 </v>
  <v type="int" >      128 </v>
  <v type="int" >       94 </v>
  <v type="int" >      166 </v>
  <v type="int" >      145 </v>
  <v type="int" >      111 </v>
  <v type="int" >       87 </v>
  <v type="int" >       23 </v>
  <v type="int" >      113 </v>
  <v type="int" >       20 </v>
  <v type="int" >      112 </v>
  <v type="int" >      147 </v>
  <v type="int" >       38 </v>
  <v type="int" >       71 </v>
  <v type="int" >      106 </v>
  <v type="int" >       37 </v>
  <v type="int" >      175 </v>
  <v type="int" >      177 </v>
  <v type="int" >      137 </v>
  <v type="int" >      162 </v>
  <v type="int" >       72 </v>
  <v type="int" >       45 </v>
  <v type="int" >      114 </v>
  <v type="int" >       55 </v>
  <v type="int" >       86 </v>
  <v type="int" >       21 </v>
  <v type="int" >       54 </v>
  <v type="int" >      167 </v>
  <v type="int" >       47 </v>
  <v type="int" >       99 </v>
  <v type="int" >       68 </v>
  <v type="int" >      180 </v>
  <v type="int" >       44 </v>
  <v type="int" >       70 </v>
  <v type="int" >      108 </v>
  <v type="int" >       15 </v>
  <v type="int" >       11 </v>
  <v type="int" >      136 </v>
  <v type="int" >       96 </v>
  <v type="int" >      138 </v>
  <v type="int" >       22 </v>
  <v type="int" >       95 </v>
  <v type="int" >      140 </v>
  <v type="int" >       34 </v>
  <v type="int" >      179 </v>
  <v type="int" >       43 </v>
  <v type="int" >       49 </v>
  <v type="int" >      124 </v>
  <v type="int" >      102 </v>
  <v type="int" >      156 </v>
  <v type="int" >      158 </v>
  <v type="int" >       97 </v>
  <v type="int" >      176 </v>
  <v type="int" >      157 </v>
  <v type="int" >       65 </v>
  <v type="int" >      104 </v>
  <v type="int" >      155 </v>
  <v type="int" >      123 </v>
  <v type="int" >      107 </v>
  <v type="int" >      122 </v>
  <v type="int" >      134 </v>
  <v type="int" >       66 </v>
  <v type="int" >      135 </v>
  <v type="int" >      139 </v>
  <v type="int" >       18 </v>
  <v type="int" >       48 </v>
  <v type="int" >       16 </v>
  <v type="int" >      125 </v>
  <v type="int" >       67 </v>
  <v type="int" >       31 </v>
  <v type="int" >       98 </v>
  <v type="int" >       32 </v>
  <v type="int" >      178 </v>
  <v type="int" >       13 </v>
  <v type="int" >       42 </v>
  <v type="int" >      133 </v>
  <v type="int" >       14 </v>
  <v type="int" >      109 </v>
  <v type="int" >       17 </v>
  <v type="int" >       33 </v>
  <v type="int" >      103 </v>
  <v type="int" >      105 </v>
  <v type="int" >       12 </v>
 </varray>
 <kpoints>
  <generation param="listgenerated">
   <i name="divisions" type="int">      20 </i>
   <v>       0.00000000       0.00000000       0.00000000 </v>
   <v>       0.50000000       0.00000000       0.00000000 </v>
   <v>       0.33333333       0.33333333       0.00000000 </v>
   <v>       0.00000000       0.00000000       0.00000000 </v>
  </generation>
  <varray name="kpointlist" >
   <v>       0.00000000       0.00000000       0.00000000 </v>
   <v>       0.02631579       0.00000000       0.00000000 </v>
   <v>       0.05263158       0.00000000       0.00000000 </v>
   <v>       0.07894737       0.00000000       0.00000000 </v>
   <v>       0.10526316       0.00000000       0.00000000 </v>
   <v>       0.13157895       0.00000000       0.00000000 </v>
   <v>       0.15789474       0.00000000       0.00000000 </v>
   <v>       0.18421053       0.00000000       0.00000000 </v>
   <v>       0.21052632       0.00000000       0.00000000 </v>
   <v>       0.23684211       0.00000000       0.00000000 </v>
   <v>       0.26315789       0.00000000       0.00000000 </v>
   <v>       0.28947368       0.00000000       0.00000000 </v>
   <v>       0.31578947       0.00000000       0.00000000 </v>
   <v>       0.34210526       0.00000000       0.00000000 </v>
   <v>       0.36842105       0.00000000       0.00000000 </v>
   <v>       0.39473684       0.00000000       0.00000000 </v>
   <v>       0.42105263       0.00000000       0.00000000 </v>
   <v>       0.44736842       0.00000000       0.00000000 </v>
   <v>       0.47368421       0.00000000       0.00000000 </v>
   <v>       0.50000000       0.00000000       0.00000000 </v>
   <v>       0.50000000       0.00000000       0.00000000 </v>
   <v>       0.49122807       0.01754386       0.00000000 </v>
   <v>       0.48245614       0.03508772       0.00000000 </v>
   <v>       0.47368421       0.05263158       0.00000000 </v>
   <v>       0.46491228       0.07017544       0.00000000 </v>
   <v>       0.45614035       0.08771930       0.00000000 </v>
   <v>       0.44736842       0.10526316       0.00000000 </v>
   <v>       0.43859649       0.12280702       0.00000000 </v>
   <v>       0.42982456       0.14035088       0.00000000 </v>
   <v>       0.42105263       0.15789474       0.00000000 </v>
   <v>       0.41228070       0.17543860       0.00000000 </v>
   <v>       0.40350877       0.19298246       0.00000000 </v>
   <v>       0.39473684       0.21052632       0.00000000 </v>
   <v>       0.38596491       0.22807018       0.00000000 </v>
   <v>       0.37719298       0.24561404       0.00000000 </v>
   <v>       0.36842105       0.26315789       0.00000000 </v>
   <v>       0.35964912       0.28070175       0.00000000 </v>
   <v>       0.35087719       0.29824561       0.00000000 </v>
   <v>       0.34210526       0.31578947       0.00000000 </v>
   <v>       0.33333333       0.33333333       0.00000000 </v>
   <v>       0.33333333       0.33333333       0.00000000 </v>
   <v>       0.31578947       0.31578947       0.00000000 </v>
   <v>       0.29824561       0.29824561       0.00000000 </v>
   <v>       0.28070175       0.28070175       0.00000000 </v>
   <v>       0.26315789       0.26315789       0.00000000 </v>
   <v>       0.24561404       0.24561404       0.00000000 </v>
   <v>       0.22807018       0.22807018       0.00000000 </v>
   <v>       0.21052632       0.21052632       0.00000000 </v>
   <v>       0.19298246       0.19298246       0.00000000 </v>
   <v>       0.17543860       0.17543860       0.00000000 </v>
   <v>       0.15789474       0.15789474       0.00000000 </v>
   <v>       0.14035088       0.14035088       0.00000000 </v>
   <v>       0.12280702       0.12280702       0.00000000 </v>
   <v>       0.10526316       0.10526316       0.00000000 </v>
   <v>       0.08771930       0.08771930       0.00000000 </v>
   <v>       0.07017544       0.07017544       0.00000000 </v>
   <v>       0.05263158       0.05263158       0.00000000 </v>
   <v>       0.03508772       0.03508772       0.00000000 </v>
   <v>       0.01754386       0.01754386       0.00000000 </v>
   <v>       0.00000000       0.00000000       0.00000000 </v>
  </varray>
  <varray name="weights" >
   <v>       0.01666667 </v>
   <v>       0.01666667 </v>
   <v>       0.01666667 </v>
   <v>       0.01666667 </v>
   <v>       0.01666667 </v>
   <v>       0.01666667 </v>
   <v>       0.01666667 </v>
   <v>       0.01666667 </v>
   <v>       0.01666667 </v>
   <v>       0.01666667 </v>
   <v>       0.01666667 </v>
   <v>       0.01666667 </v>
   <v>       0.01666667 </v>
   <v>       0.01666667 </v>
   <v>       0.01666667 </v>
   <v>       0.01666667 </v>
   <v>       0.01666667 </v>
   <v>       0.01666667 </v>
   <v>       0.01666667 </v>
   <v>       0.01666667 </v>
   <v>       0.01666667 </v>
   <v>       0.01666667 </v>
   <v>       0.01666667 </v>
   <v>       0.01666667 </v>
   <v>       0.01666667 </v>
   <v>       0.01666667 </v>
   <v>       0.01666667 </v>
   <v>       0.01666667 </v>
   <v>       0.01666667 </v>
   <v>       0.01666667 </v>
   <v>       0.01666667 </v>
   <v>       0.01666667 </v>
   <v>       0.01666667 </v>
   <v>       0.01666667 </v>
   <v>       0.01666667 </v>
   <v>       0.01666667 </v>
   <v>       0.01666667 </v>
   <v>       0.01666667 </v>
   <v>       0.01666667 </v>
   <v>       0.01666667 </v>
   <v>       0.01666667 </v>
   <v>       0.01666667 </v>
   <v>       0.01666667 </v>
   <v>       0.01666667 </v>
   <v>       0.01666667 </v>
   <v>       0.01666667 </v>
   <v>       0.01666667 </v>
   <v>       0.01666667 </v>
   <v>       0.01666667 </v>
   <v>       0.01666667 </v>
   <v>       0.01666667 </v>
   <v>       0.01666667 </v>
   <v>       0.01666667 </v>
   <v>       0.01666667 </v>
   <v>       0.01666667 </v>
   <v>       0.01666667 </v>
   <v>       0.01666667 </v>
   <v>       0.01666667 </v>
   <v>       0.01666667 </v>
   <v>       0.01666667 </v>
  </varray>
 </kpoints>
 <parameters>
  <separator name="general" >
   <i type="string" name="SYSTEM">Simulation for cell shape cell volume r</i>
   <i type="logical" name="LCOMPAT"> F  </i>
  </separator>
  <separator name="electronic" >
   <i type="string" name="PREC">high</i>
   <i name="ENMAX">    500.00000000</i>
   <i name="ENAUG">    644.87300000</i>
   <i name="EDIFF">      0.00001000</i>
   <i type="int" name="IALGO">    38</i>
   <i type="int" name="IWAVPR">    10</i>
   <i type="int" name="NBANDS">   352</i>
   <i name="NELECT">    522.00000000</i>
   <i type="int" name="TURBO">     0</i>
   <i type="int" name="IRESTART">     0</i>
   <i type="int" name="NREBOOT">     0</i>
   <i type="int" name="NMIN">     0</i>
   <i name="EREF">      0.00000000</i>
   <separator name="electronic smearing" >
    <i type="int" name="ISMEAR">     0</i>
    <i name="SIGMA">      0.01000000</i>
    <i name="KSPACING">      0.50000000</i>
    <i type="logical" name="KGAMMA"> T  </i>
   </separator>
   <separator name="electronic projectors" >
    <i type="logical" name="LREAL"> T  </i>
    <v name="ROPT">     -0.00040000     -0.00040000     -0.00040000</v>
    <i type="int" name="LMAXPAW">  -100</i>
    <i type="int" name="LMAXMIX">     2</i>
    <i type="logical" name="NLSPLINE"> F  </i>
   </separator>
   <separator name="electronic startup" >
    <i type="int" name="ISTART">     1</i>
    <i type="int" name="ICHARG">    11</i>
    <i type="int" name="INIWAV">     1</i>
   </separator>
   <separator name="electronic spin" >
    <i type="int" name="ISPIN">     1</i>
    <i type="logical" name="LNONCOLLINEAR"> F  </i>
    <v name="MAGMOM">      1.00000000      1.00000000      1.00000000      1.00000000      1.00000000      1.00000000      1.00000000      1.00000000      1.00000000      1.00000000      1.00000000      1.00000000      1.00000000      1.00000000      1.00000000      1.00000000      1.00000000      1.00000000      1.00000000      1.00000000
      1.00000000      1.00000000      1.00000000      1.00000000      1.00000000      1.00000000      1.00000000      1.00000000      1.00000000      1.00000000      1.00000000      1.00000000      1.00000000      1.00000000      1.00000000      1.00000000      1.00000000      1.00000000      1.00000000      1.00000000
      1.00000000      1.00000000      1.00000000      1.00000000      1.00000000      1.00000000      1.00000000      1.00000000      1.00000000      1.00000000      1.00000000      1.00000000      1.00000000      1.00000000      1.00000000      1.00000000      1.00000000      1.00000000      1.00000000      1.00000000
      1.00000000      1.00000000      1.00000000      1.00000000      1.00000000      1.00000000      1.00000000      1.00000000      1.00000000      1.00000000      1.00000000      1.00000000      1.00000000      1.00000000      1.00000000      1.00000000      1.00000000      1.00000000      1.00000000      1.00000000
      1.00000000      1.00000000      1.00000000      1.00000000      1.00000000      1.00000000      1.00000000      1.00000000      1.00000000      1.00000000      1.00000000      1.00000000      1.00000000      1.00000000      1.00000000      1.00000000      1.00000000      1.00000000      1.00000000      1.00000000
      1.00000000      1.00000000      1.00000000      1.00000000      1.00000000      1.00000000      1.00000000      1.00000000      1.00000000      1.00000000      1.00000000      1.00000000      1.00000000      1.00000000      1.00000000      1.00000000      1.00000000      1.00000000      1.00000000      1.00000000
      1.00000000      1.00000000      1.00000000      1.00000000      1.00000000      1.00000000      1.00000000      1.00000000      1.00000000      1.00000000      1.00000000      1.00000000      1.00000000      1.00000000      1.00000000      1.00000000      1.00000000      1.00000000      1.00000000      1.00000000
      1.00000000      1.00000000      1.00000000      1.00000000      1.00000000      1.00000000      1.00000000      1.00000000      1.00000000      1.00000000      1.00000000      1.00000000      1.00000000      1.00000000      1.00000000      1.00000000      1.00000000      1.00000000      1.00000000      1.00000000
      1.00000000      1.00000000      1.00000000      1.00000000      1.00000000      1.00000000      1.00000000      1.00000000      1.00000000      1.00000000      1.00000000      1.00000000      1.00000000      1.00000000      1.00000000      1.00000000      1.00000000      1.00000000      1.00000000      1.00000000
</v>
    <i name="NUPDOWN">     -1.00000000</i>
    <i type="logical" name="LSORBIT"> F  </i>
    <v name="SAXIS">      0.00000000      0.00000000      1.00000000</v>
    <i type="logical" name="LSPIRAL"> F  </i>
    <v name="QSPIRAL">      0.00000000      0.00000000      0.00000000</v>
    <i type="logical" name="LZEROZ"> F  </i>
   </separator>
   <separator name="electronic exchange-correlation" >
    <i type="logical" name="LASPH"> F  </i>
    <i type="logical" name="LMETAGGA"> F  </i>
   </separator>
   <separator name="electronic convergence" >
    <i type="int" name="NELM">   200</i>
    <i type="int" name="NELMDL">     0</i>
    <i type="int" name="NELMIN">     2</i>
    <i name="ENINI">    500.00000000</i>
    <separator name="electronic convergence detail" >
     <i type="logical" name="LDIAG"> T  </i>
     <i type="logical" name="LSUBROT"> F  </i>
     <i name="WEIMIN">      0.00000000</i>
     <i name="EBREAK">      0.00000001</i>
     <i name="DEPER">      0.30000000</i>
     <i type="int" name="NRMM">     4</i>
     <i name="TIME">      0.40000000</i>
    </separator>
   </separator>
   <separator name="electronic mixer" >
    <i name="AMIX">      0.40000000</i>
    <i name="BMIX">      1.00000000</i>
    <i name="AMIN">      0.10000000</i>
    <i name="AMIX_MAG">      1.60000000</i>
    <i name="BMIX_MAG">      1.00000000</i>
    <separator name="electronic mixer details" >
     <i type="int" name="IMIX">     4</i>
     <i type="logical" name="MIXFIRST"> F  </i>
     <i type="int" name="MAXMIX">   -45</i>
     <i name="WC">    100.00000000</i>
     <i type="int" name="INIMIX">     1</i>
     <i type="int" name="MIXPRE">     1</i>
     <i type="int" name="MREMOVE">     5</i>
    </separator>
   </separator>
   <separator name="electronic dipolcorrection" >
    <i type="logical" name="LDIPOL"> F  </i>
    <i type="logical" name="LMONO"> F  </i>
    <i type="int" name="IDIPOL">     0</i>
    <i name="EPSILON">      1.00000000</i>
    <v name="DIPOL">   -100.00000000   -100.00000000   -100.00000000</v>
    <i name="EFIELD">      0.00000000</i>
   </separator>
  </separator>
  <separator name="grids" >
   <i type="int" name="NGX">   216</i>
   <i type="int" name="NGY">   216</i>
   <i type="int" name="NGZ">   150</i>
   <i type="int" name="NGXF">   336</i>
   <i type="int" name="NGYF">   336</i>
   <i type="int" name="NGZF">   224</i>
   <i type="logical" name="ADDGRID"> F  </i>
  </separator>
  <separator name="ionic" >
   <i type="int" name="NSW">     0</i>
   <i type="int" name="IBRION">    -1</i>
   <i type="int" name="MDALGO">     0</i>
   <i type="int" name="ISIF">     2</i>
   <i name="PSTRESS">      0.00000000</i>
   <i name="EDIFFG">     -0.01000000</i>
   <i type="int" name="NFREE">     0</i>
   <i name="POTIM">      0.30000000</i>
   <i name="SMASS">     -3.00000000</i>
   <i name="SCALEE">      1.00000000</i>
  </separator>
  <separator name="ionic md" >
   <i name="TEBEG">      0.00010000</i>
   <i name="TEEND">      0.00010000</i>
   <i type="int" name="NBLOCK">     1</i>
   <i type="int" name="KBLOCK">     1</i>
   <i type="int" name="NPACO">   256</i>
   <i name="APACO">     16.00000000</i>
  </separator>
  <separator name="symmetry" >
   <i type="int" name="ISYM">     2</i>
   <i name="SYMPREC">      0.00001000</i>
  </separator>
  <separator name="dos" >
   <i type="int" name="LORBIT">     0</i>
   <v name="RWIGS">     -1.00000000     -1.00000000     -1.00000000</v>
   <i type="int" name="NEDOS">   301</i>
   <i name="EMIN">     10.00000000</i>
   <i name="EMAX">    -10.00000000</i>
   <i name="EFERMI">      0.00000000</i>
  </separator>
  <separator name="writing" >
   <i type="int" name="NWRITE">     0</i>
   <i type="logical" name="LWAVE"> T  </i>
   <i type="logical" name="LDOWNSAMPLE"> F  </i>
   <i type="logical" name="LCHARG"> T  </i>
   <i type="logical" name="LPARD"> F  </i>
   <i type="logical" name="LVTOT"> F  </i>
   <i type="logical" name="LVHAR"> F  </i>
   <i type="logical" name="LELF"> F  </i>
   <i type="logical" name="LOPTICS"> F  </i>
   <v name="STM">      0.00000000      0.00000000      0.00000000      0.00000000      0.00000000      0.00000000      0.00000000</v>
  </separator>
  <separator name="performance" >
   <i type="int" name="NPAR">    16</i>
   <i type="int" name="NSIM">     4</i>
   <i type="int" name="NBLK">    -1</i>
   <i type="logical" name="LPLANE"> T  </i>
   <i type="logical" name="LSCALAPACK"> T  </i>
   <i type="logical" name="LSCAAWARE"> F  </i>
   <i type="logical" name="LSCALU"> F  </i>
   <i type="logical" name="LASYNC"> F  </i>
   <i type="logical" name="LORBITALREAL"> F  </i>
  </separator>
  <separator name="miscellaneous" >
   <i type="int" name="IDIOT">     3</i>
   <i type="int" name="ISPECIAL">     0</i>
   <i type="logical" name="LMUSIC"> F  </i>
   <v name="POMASS">      1.00000000     12.01100000     14.00100000</v>
   <v name="DARWINR">      0.00000000      0.00000000      0.00000000</v>
   <v name="DARWINV">      1.00000000      1.00000000      1.00000000</v>
   <i type="logical" name="LCORR"> T  </i>
  </separator>
  <i type="logical" name="GGA_COMPAT"> T  </i>
  <i type="logical" name="LBERRY"> F  </i>
  <i type="int" name="ICORELEVEL">     0</i>
  <i type="logical" name="LDAU"> F  </i>
  <i type="int" name="I_CONSTRAINED_M">     0</i>
  <separator name="electronic exchange-correlation" >
   <i type="string" name="GGA">PE</i>
   <i type="int" name="VOSKOWN">     0</i>
   <i type="logical" name="LHFCALC"> F  </i>
   <i type="string" name="PRECFOCK"></i>
   <i type="logical" name="LSYMGRAD"> F  </i>
   <i type="logical" name="LHFONE"> F  </i>
   <i type="logical" name="LRHFCALC"> F  </i>
   <i type="logical" name="LTHOMAS"> F  </i>
   <i type="logical" name="LMODELHF"> F  </i>
   <i name="ENCUT4O">     -1.00000000</i>
   <i type="int" name="EXXOEP">     0</i>
   <i type="int" name="FOURORBIT">     0</i>
   <i name="AEXX">      0.00000000</i>
   <i name="HFALPHA">      0.00000000</i>
   <i name="MCALPHA">      0.00000000</i>
   <i name="ALDAX">      1.00000000</i>
   <i name="AGGAX">      1.00000000</i>
   <i name="ALDAC">      1.00000000</i>
   <i name="AGGAC">      1.00000000</i>
   <i type="int" name="NKREDX">     1</i>
   <i type="int" name="NKREDY">     1</i>
   <i type="int" name="NKREDZ">     1</i>
   <i type="logical" name="SHIFTRED"> F  </i>
   <i type="logical" name="ODDONLY"> F  </i>
   <i type="logical" name="EVENONLY"> F  </i>
   <i type="int" name="LMAXFOCK">     0</i>
   <i type="int" name="NMAXFOCKAE">     0</i>
   <i type="logical" name="LFOCKAEDFT"> F  </i>
   <i name="HFSCREEN">      0.00000000</i>
   <i name="HFSCREENC">      0.00000000</i>
   <i type="int" name="NBANDSGWLOW">     0</i>
  </separator>
  <separator name="vdW DFT" >
   <i type="logical" name="LUSE_VDW"> F  </i>
   <i name="Zab_VDW">     -0.84910000</i>
   <i name="PARAM1">      0.12340000</i>
   <i name="PARAM2">      1.00000000</i>
   <i name="PARAM3">      0.00000000</i>
  </separator>
  <separator name="model GW" >
   <i type="int" name="MODEL_GW">     0</i>
   <i name="MODEL_EPS0">     50.53617226</i>
   <i name="MODEL_ALPHA">      1.00000000</i>
  </separator>
  <separator name="linear response parameters" >
   <i type="logical" name="LEPSILON"> F  </i>
   <i type="logical" name="LRPA"> F  </i>
   <i type="logical" name="LNABLA"> F  </i>
   <i type="logical" name="LVEL"> F  </i>
   <i type="int" name="KINTER">     0</i>
   <i name="CSHIFT">      0.10000000</i>
   <i name="OMEGAMAX">     -1.00000000</i>
   <i name="DEG_THRESHOLD">      0.00200000</i>
   <i name="RTIME">     -0.10000000</i>
   <i name="WPLASMAI">      0.00000000</i>
   <v name="DFIELD">      0.00000000      0.00000000      0.00000000</v>
   <v name="WPLASMA">      0.00000000      0.00000000      0.00000000      0.00000000      0.00000000      0.00000000      0.00000000      0.00000000      0.00000000</v>
  </separator>
  <separator name="orbital magnetization" >
   <i type="logical" name="NUCIND"> F  </i>
   <v name="MAGPOS">      0.00000000      0.00000000      0.00000000</v>
   <i type="logical" name="LNICSALL"> T  </i>
   <i type="logical" name="ORBITALMAG"> F  </i>
   <i type="logical" name="LMAGBLOCH"> F  </i>
   <i type="logical" name="LCHIMAG"> F  </i>
   <i type="logical" name="LGAUGE"> T  </i>
   <i type="int" name="MAGATOM">     0</i>
   <v name="MAGDIPOL">      0.00000000      0.00000000      0.00000000</v>
   <v name="AVECCONST">      0.00000000      0.00000000      0.00000000</v>
  </separator>
  <separator name="response functions" >
   <i type="logical" name="LADDER"> F  </i>
   <i type="logical" name="LRPAFORCE"> F  </i>
   <i type="logical" name="LFXC"> F  </i>
   <i type="logical" name="LHARTREE"> T  </i>
   <i type="int" name="IBSE">     0</i>
   <v type="int" name="KPOINT">    -1     0     0     0</v>
   <i type="logical" name="LTCTE"> F  </i>
   <i type="logical" name="LTETE"> F  </i>
   <i type="logical" name="LTRIPLET"> F  </i>
   <i type="logical" name="LFXCEPS"> F  </i>
   <i type="logical" name="LFXHEG"> F  </i>
   <i type="int" name="NATURALO">     2</i>
   <i type="logical" name="L2ORDER"> F  </i>
   <i type="logical" name="LMP2LT"> F  </i>
   <i type="logical" name="LUSEW"> F  </i>
   <i name="ENCUTGW">     -2.00000000</i>
   <i name="ENCUTGWSOFT">     -2.00000000</i>
   <i name="ENCUTLF">     -1.00000000</i>
   <i type="int" name="LMAXMP2">    -1</i>
   <i name="SCISSOR">      0.00000000</i>
   <i type="int" name="NOMEGA">     0</i>
   <i type="int" name="NOMEGAR">     0</i>
   <i type="int" name="NBANDSGW">    -1</i>
   <i type="int" name="NBANDSO">    -1</i>
   <i type="int" name="NBANDSV">    -1</i>
   <i type="int" name="NELM">   200</i>
   <i type="int" name="NELMHF">     1</i>
   <i type="int" name="DIM">     3</i>
   <i type="int" name="ANTIRES">     0</i>
   <i name="OMEGAMAX">    -30.00000000</i>
   <i name="OMEGAMIN">    -30.00000000</i>
   <i name="OMEGATL">   -200.00000000</i>
   <i type="int" name="OMEGAGRID">   140</i>
   <i name="CSHIFT">     -0.10000000</i>
   <i type="logical" name="SELFENERGY"> F  </i>
   <i type="logical" name="LSPECTRAL"> F  </i>
   <i type="logical" name="LSPECTRALGW"> F  </i>
   <i type="logical" name="LSINGLES"> F  </i>
   <i type="logical" name="LFERMIGW"> F  </i>
   <i type="logical" name="ODDONLYGW"> F  </i>
   <i type="logical" name="EVENONLYGW"> F  </i>
   <i type="int" name="NKREDLFX">     1</i>
   <i type="int" name="NKREDLFY">     1</i>
   <i type="int" name="NKREDLFZ">     1</i>
   <i type="int" name="MAXMEM">  2800</i>
   <i type="int" name="TELESCOPE">     0</i>
   <i type="int" name="TAUPAR">     1</i>
   <i type="int" name="OMEGAPAR">    -1</i>
   <i name="LAMBDA">      1.00000000</i>
  </separator>
  <separator name="External order field" >
   <i name="OFIELD_KAPPA">      0.00000000</i>
   <v name="OFIELD_K">      0.00000000      0.00000000      0.00000000</v>
   <i name="OFIELD_Q6_NEAR">      0.00000000</i>
   <i name="OFIELD_Q6_FAR">      0.00000000</i>
   <i name="OFIELD_A">      0.00000000</i>
  </separator>
  <separator name="solvation model" >
   <i type="logical" name="LSOL"> F  </i>
  </separator>
 </parameters>
 <atominfo>
  <atoms>     180 </atoms>
  <types>       3 </types>
  <array name="atoms" >
   <dimension dim="1">ion</dimension>
   <field type="string">element</field>
   <field type="int">atomtype</field>
   <set>
    <rc><c>H </c><c>   1</c></rc>
    <rc><c>H </c><c>   1</c></rc>
    <rc><c>H </c><c>   1</c></rc>
    <rc><c>H </c><c>   1</c></rc>
    <rc><c>H </c><c>   1</c></rc>
    <rc><c>H </c><c>   1</c></rc>
    <rc><c>H </c><c>   1</c></rc>
    <rc><c>H </c><c>   1</c></rc>
    <rc><c>H </c><c>   1</c></rc>
    <rc><c>H </c><c>   1</c></rc>
    <rc><c>H </c><c>   1</c></rc>
    <rc><c>H </c><c>   1</c></rc>
    <rc><c>H </c><c>   1</c></rc>
    <rc><c>H </c><c>   1</c></rc>
    <rc><c>H </c><c>   1</c></rc>
    <rc><c>H </c><c>   1</c></rc>
    <rc><c>H </c><c>   1</c></rc>
    <rc><c>H </c><c>   1</c></rc>
    <rc><c>H </c><c>   1</c></rc>
    <rc><c>H </c><c>   1</c></rc>
    <rc><c>H </c><c>   1</c></rc>
    <rc><c>H </c><c>   1</c></rc>
    <rc><c>H </c><c>   1</c></rc>
    <rc><c>H </c><c>   1</c></rc>
    <rc><c>H </c><c>   1</c></rc>
    <rc><c>H </c><c>   1</c></rc>
    <rc><c>H </c><c>   1</c></rc>
    <rc><c>H </c><c>   1</c></rc>
    <rc><c>H </c><c>   1</c></rc>
    <rc><c>H </c><c>   1</c></rc>
    <rc><c>H </c><c>   1</c></rc>
    <rc><c>H </c><c>   1</c></rc>
    <rc><c>H </c><c>   1</c></rc>
    <rc><c>H </c><c>   1</c></rc>
    <rc><c>H </c><c>   1</c></rc>
    <rc><c>H </c><c>   1</c></rc>
    <rc><c>H </c><c>   1</c></rc>
    <rc><c>H </c><c>   1</c></rc>
    <rc><c>H </c><c>   1</c></rc>
    <rc><c>H </c><c>   1</c></rc>
    <rc><c>H </c><c>   1</c></rc>
    <rc><c>H </c><c>   1</c></rc>
    <rc><c>H </c><c>   1</c></rc>
    <rc><c>H </c><c>   1</c></rc>
    <rc><c>H </c><c>   1</c></rc>
    <rc><c>H </c><c>   1</c></rc>
    <rc><c>H </c><c>   1</c></rc>
    <rc><c>H </c><c>   1</c></rc>
    <rc><c>H </c><c>   1</c></rc>
    <rc><c>H </c><c>   1</c></rc>
    <rc><c>H </c><c>   1</c></rc>
    <rc><c>H </c><c>   1</c></rc>
    <rc><c>H </c><c>   1</c></rc>
    <rc><c>H </c><c>   1</c></rc>
    <rc><c>H </c><c>   1</c></rc>
    <rc><c>H </c><c>   1</c></rc>
    <rc><c>H </c><c>   1</c></rc>
    <rc><c>H </c><c>   1</c></rc>
    <rc><c>H </c><c>   1</c></rc>
    <rc><c>H </c><c>   1</c></rc>
    <rc><c>H </c><c>   1</c></rc>
    <rc><c>H </c><c>   1</c></rc>
    <rc><c>H </c><c>   1</c></rc>
    <rc><c>H </c><c>   1</c></rc>
    <rc><c>H </c><c>   1</c></rc>
    <rc><c>H </c><c>   1</c></rc>
    <rc><c>H </c><c>   1</c></rc>
    <rc><c>H </c><c>   1</c></rc>
    <rc><c>H </c><c>   1</c></rc>
    <rc><c>H </c><c>   1</c></rc>
    <rc><c>H </c><c>   1</c></rc>
    <rc><c>H </c><c>   1</c></rc>
    <rc><c>C </c><c>   2</c></rc>
    <rc><c>C </c><c>   2</c></rc>
    <rc><c>C </c><c>   2</c></rc>
    <rc><c>C </c><c>   2</c></rc>
    <rc><c>C </c><c>   2</c></rc>
    <rc><c>C </c><c>   2</c></rc>
    <rc><c>C </c><c>   2</c></rc>
    <rc><c>C </c><c>   2</c></rc>
    <rc><c>C </c><c>   2</c></rc>
    <rc><c>C </c><c>   2</c></rc>
    <rc><c>C </c><c>   2</c></rc>
    <rc><c>C </c><c>   2</c></rc>
    <rc><c>C </c><c>   2</c></rc>
    <rc><c>C </c><c>   2</c></rc>
    <rc><c>C </c><c>   2</c></rc>
    <rc><c>C </c><c>   2</c></rc>
    <rc><c>C </c><c>   2</c></rc>
    <rc><c>C </c><c>   2</c></rc>
    <rc><c>C </c><c>   2</c></rc>
    <rc><c>C </c><c>   2</c></rc>
    <rc><c>C </c><c>   2</c></rc>
    <rc><c>C </c><c>   2</c></rc>
    <rc><c>C </c><c>   2</c></rc>
    <rc><c>C </c><c>   2</c></rc>
    <rc><c>C </c><c>   2</c></rc>
    <rc><c>C </c><c>   2</c></rc>
    <rc><c>C </c><c>   2</c></rc>
    <rc><c>C </c><c>   2</c></rc>
    <rc><c>C </c><c>   2</c></rc>
    <rc><c>C </c><c>   2</c></rc>
    <rc><c>C </c><c>   2</c></rc>
    <rc><c>C </c><c>   2</c></rc>
    <rc><c>C </c><c>   2</c></rc>
    <rc><c>C </c><c>   2</c></rc>
    <rc><c>C </c><c>   2</c></rc>
    <rc><c>C </c><c>   2</c></rc>
    <rc><c>C </c><c>   2</c></rc>
    <rc><c>C </c><c>   2</c></rc>
    <rc><c>C </c><c>   2</c></rc>
    <rc><c>C </c><c>   2</c></rc>
    <rc><c>C </c><c>   2</c></rc>
    <rc><c>C </c><c>   2</c></rc>
    <rc><c>C </c><c>   2</c></rc>
    <rc><c>C </c><c>   2</c></rc>
    <rc><c>C </c><c>   2</c></rc>
    <rc><c>C </c><c>   2</c></rc>
    <rc><c>C </c><c>   2</c></rc>
    <rc><c>C </c><c>   2</c></rc>
    <rc><c>C </c><c>   2</c></rc>
    <rc><c>C </c><c>   2</c></rc>
    <rc><c>C </c><c>   2</c></rc>
    <rc><c>C </c><c>   2</c></rc>
    <rc><c>C </c><c>   2</c></rc>
    <rc><c>C </c><c>   2</c></rc>
    <rc><c>C </c><c>   2</c></rc>
    <rc><c>C </c><c>   2</c></rc>
    <rc><c>C </c><c>   2</c></rc>
    <rc><c>C </c><c>   2</c></rc>
    <rc><c>C </c><c>   2</c></rc>
    <rc><c>C </c><c>   2</c></rc>
    <rc><c>C </c><c>   2</c></rc>
    <rc><c>C </c><c>   2</c></rc>
    <rc><c>C </c><c>   2</c></rc>
    <rc><c>C </c><c>   2</c></rc>
    <rc><c>C </c><c>   2</c></rc>
    <rc><c>C </c><c>   2</c></rc>
    <rc><c>C </c><c>   2</c></rc>
    <rc><c>C </c><c>   2</c></rc>
    <rc><c>C </c><c>   2</c></rc>
    <rc><c>C </c><c>   2</c></rc>
    <rc><c>C </c><c>   2</c></rc>
    <rc><c>C </c><c>   2</c></rc>
    <rc><c>C </c><c>   2</c></rc>
    <rc><c>C </c><c>   2</c></rc>
    <rc><c>C </c><c>   2</c></rc>
    <rc><c>C </c><c>   2</c></rc>
    <rc><c>C </c><c>   2</c></rc>
    <rc><c>C </c><c>   2</c></rc>
    <rc><c>C </c><c>   2</c></rc>
    <rc><c>C </c><c>   2</c></rc>
    <rc><c>C </c><c>   2</c></rc>
    <rc><c>C </c><c>   2</c></rc>
    <rc><c>C </c><c>   2</c></rc>
    <rc><c>C </c><c>   2</c></rc>
    <rc><c>C </c><c>   2</c></rc>
    <rc><c>C </c><c>   2</c></rc>
    <rc><c>C </c><c>   2</c></rc>
    <rc><c>C </c><c>   2</c></rc>
    <rc><c>C </c><c>   2</c></rc>
    <rc><c>C </c><c>   2</c></rc>
    <rc><c>N </c><c>   3</c></rc>
    <rc><c>N </c><c>   3</c></rc>
    <rc><c>N </c><c>   3</c></rc>
    <rc><c>N </c><c>   3</c></rc>
    <rc><c>N </c><c>   3</c></rc>
    <rc><c>N </c><c>   3</c></rc>
    <rc><c>N </c><c>   3</c></rc>
    <rc><c>N </c><c>   3</c></rc>
    <rc><c>N </c><c>   3</c></rc>
    <rc><c>N </c><c>   3</c></rc>
    <rc><c>N </c><c>   3</c></rc>
    <rc><c>N </c><c>   3</c></rc>
    <rc><c>N </c><c>   3</c></rc>
    <rc><c>N </c><c>   3</c></rc>
    <rc><c>N </c><c>   3</c></rc>
    <rc><c>N </c><c>   3</c></rc>
    <rc><c>N </c><c>   3</c></rc>
    <rc><c>N </c><c>   3</c></rc>
   </set>
  </array>
  <array name="atomtypes" >
   <dimension dim="1">type</dimension>
   <field type="int">atomspertype</field>
   <field type="string">element</field>
   <field>mass</field>
   <field>valence</field>
   <field type="string">pseudopotential</field>
   <set>
    <rc><c>  72</c><c>H </c><c>      1.00000000</c><c>      1.00000000</c><c>  PAW_PBE H 15Jun2001                   </c></rc>
    <rc><c>  90</c><c>C </c><c>     12.01100000</c><c>      4.00000000</c><c>  PAW_PBE C 08Apr2002                   </c></rc>
    <rc><c>  18</c><c>N </c><c>     14.00100000</c><c>      5.00000000</c><c>  PAW_PBE N 08Apr2002                   </c></rc>
   </set>
  </array>
 </atominfo>
 <structure name="initialpos" >
  <crystal>
   <varray name="basis" >
    <v>      29.59274264       0.00021798       0.00000000 </v>
    <v>     -14.79620162      25.61571828       0.00000000 </v>
    <v>       0.00000000       0.00000000      20.00000000 </v>
   </varray>
   <i name="volume">  15160.85167857 </i>
   <varray name="rec_basis" >
    <v>       0.03379193       0.01951896       0.00000000 </v>
    <v>      -0.00000029       0.03903836       0.00000000 </v>
    <v>       0.00000000       0.00000000       0.05000000 </v>
   </varray>
  </crystal>
  <varray name="positions" >
   <v>       0.06204273       0.47607403       0.59945775 </v>
   <v>       0.06107549       0.60299902       0.49765302 </v>
   <v>       0.17686078       0.70607320       0.60215266 </v>
   <v>       0.23474701       0.74433535       0.64990752 </v>
   <v>       0.21268026       0.67756672       0.63252419 </v>
   <v>       0.21745812       0.50902807       0.59611468 </v>
   <v>       0.20461379       0.66115515       0.36339580 </v>
   <v>       0.94765660       0.38129569       0.58288852 </v>
   <v>       0.98706915       0.41362118       0.65386613 </v>
   <v>       0.92453103       0.40772157       0.64382561 </v>
   <v>       0.43471894       0.95417302       0.59972481 </v>
   <v>       0.45409932       0.06856429       0.58345434 </v>
   <v>       0.44744336       0.02918173       0.65431224 </v>
   <v>       0.50400893       0.09176928       0.64392690 </v>
   <v>       0.53977163       0.58167894       0.60148999 </v>
   <v>       0.63480853       0.56215621       0.58461241 </v>
   <v>       0.60250912       0.56932574       0.65555867 </v>
   <v>       0.60823436       0.51256415       0.64554039 </v>
   <v>       0.31197363       0.79878928       0.59492729 </v>
   <v>       0.50657205       0.70437033       0.59665835 </v>
   <v>       0.52876039       0.78156462       0.65121519 </v>
   <v>       0.54883007       0.83945014       0.60326568 </v>
   <v>       0.48423191       0.80357956       0.63270753 </v>
   <v>       0.27202339       0.48671710       0.65140231 </v>
   <v>       0.31033551       0.46693887       0.60405027 </v>
   <v>       0.33871913       0.53145345       0.63380937 </v>
   <v>       0.72472955       0.21947646       0.59731757 </v>
   <v>       0.79908554       0.27827350       0.65312456 </v>
   <v>       0.85690076       0.31478960       0.60490605 </v>
   <v>       0.82151388       0.34462104       0.63248424 </v>
   <v>       0.51565291       0.29191021       0.59903105 </v>
   <v>       0.50090078       0.21776077       0.65485704 </v>
   <v>       0.47905657       0.15976125       0.60684321 </v>
   <v>       0.54460375       0.19537033       0.63303281 </v>
   <v>       0.79640978       0.50069127       0.59858275 </v>
   <v>       0.73687211       0.51485013       0.65488557 </v>
   <v>       0.70091428       0.53703837       0.60709721 </v>
   <v>       0.67074452       0.47136085       0.63292820 </v>
   <v>       0.98982788       0.60060137       0.46046779 </v>
   <v>       0.93196913       0.54002086       0.44587873 </v>
   <v>       0.93738195       0.57500425       0.51921615 </v>
   <v>       0.56197681       0.95543875       0.49587571 </v>
   <v>       0.63023594       0.02689027       0.45752828 </v>
   <v>       0.62727856       0.08474079       0.44397399 </v>
   <v>       0.65765267       0.07922185       0.51645129 </v>
   <v>       0.41322222       0.45377614       0.49913711 </v>
   <v>       0.41601905       0.38512112       0.46150448 </v>
   <v>       0.47678179       0.38833001       0.44675234 </v>
   <v>       0.44187928       0.35833774       0.51998586 </v>
   <v>       0.33830005       0.77222169       0.39100277 </v>
   <v>       0.26125224       0.71216604       0.32442106 </v>
   <v>       0.26328822       0.65895935       0.36295241 </v>
   <v>       0.45508546       0.67764379       0.39214243 </v>
   <v>       0.47775075       0.81121187       0.36332317 </v>
   <v>       0.47249012       0.75452807       0.32493658 </v>
   <v>       0.41697715       0.75241689       0.36263085 </v>
   <v>       0.24360390       0.56090156       0.39174000 </v>
   <v>       0.35445041       0.53792514       0.36450383 </v>
   <v>       0.30342770       0.54344309       0.32540837 </v>
   <v>       0.35680396       0.59889725       0.36333621 </v>
   <v>       0.69543353       0.24251720       0.39326618 </v>
   <v>       0.82624856       0.35860594       0.36524857 </v>
   <v>       0.77220814       0.30456957       0.32625158 </v>
   <v>       0.76490825       0.35541061       0.36278782 </v>
   <v>       0.56541701       0.32044946       0.39392526 </v>
   <v>       0.55003705       0.18943009       0.36553514 </v>
   <v>       0.55075151       0.24390969       0.32685136 </v>
   <v>       0.60869403       0.25035463       0.36282094 </v>
   <v>       0.77460046       0.45049309       0.39367048 </v>
   <v>       0.65853895       0.46503762       0.36566117 </v>
   <v>       0.71249284       0.46478347       0.32686801 </v>
   <v>       0.66139580       0.40669201       0.36312041 </v>
   <v>       0.06738355       0.54202809       0.54689505 </v>
   <v>       0.04016425       0.49312842       0.57770816 </v>
   <v>       0.03940019       0.56453454       0.52068478 </v>
   <v>       0.12422205       0.56862888       0.53514021 </v>
   <v>       0.19414511       0.56256426       0.50271643 </v>
   <v>       0.19689123       0.64083760       0.49759951 </v>
   <v>       0.24910657       0.73000206       0.54872740 </v>
   <v>       0.23432522       0.69785210       0.49121212 </v>
   <v>       0.21664664       0.71381278       0.61163134 </v>
   <v>       0.24031029       0.51786503       0.55019373 </v>
   <v>       0.24722122       0.68526266       0.36720378 </v>
   <v>       0.22719554       0.53817973       0.49524326 </v>
   <v>       0.38910979       0.82204739       0.50193754 </v>
   <v>       0.46491021       0.89206346       0.53472319 </v>
   <v>       0.46471790       0.81951446       0.49721858 </v>
   <v>       0.45340710       0.62705189       0.50358025 </v>
   <v>       0.44733519       0.55121187       0.53680742 </v>
   <v>       0.37521173       0.55146410       0.49860547 </v>
   <v>       0.82599772       0.45275153       0.50494700 </v>
   <v>       0.90039641       0.45511958       0.53796184 </v>
   <v>       0.83217439       0.37936332       0.49892484 </v>
   <v>       0.64677774       0.19072463       0.50448581 </v>
   <v>       0.57489308       0.11607267       0.53732498 </v>
   <v>       0.56716173       0.18439006       0.49911488 </v>
   <v>       0.56374093       0.36953992       0.50559839 </v>
   <v>       0.56142199       0.44151027       0.53903657 </v>
   <v>       0.63703453       0.44909871       0.49939558 </v>
   <v>       0.98569554       0.46562858       0.58021343 </v>
   <v>       0.95975872       0.41433214       0.61728593 </v>
   <v>       0.49503475       0.94896088       0.54625421 </v>
   <v>       0.50040027       0.03061811       0.57995821 </v>
   <v>       0.47349159       0.97611804       0.57752570 </v>
   <v>       0.47524047       0.05650928       0.61753906 </v>
   <v>       0.47401187       0.52105832       0.54864375 </v>
   <v>       0.55052307       0.51598150       0.58182473 </v>
   <v>       0.52287179       0.54280610       0.57953533 </v>
   <v>       0.60175532       0.54127454       0.61897670 </v>
   <v>       0.29808790       0.77586109       0.54904656 </v>
   <v>       0.49789364       0.71818527       0.55044752 </v>
   <v>       0.50101348       0.76716565       0.54961464 </v>
   <v>       0.48416062       0.78191722       0.49159091 </v>
   <v>       0.51670110       0.79964593       0.61249809 </v>
   <v>       0.28619785       0.51483183       0.54998317 </v>
   <v>       0.31820945       0.53189309       0.49233647 </v>
   <v>       0.30251845       0.49898521       0.61312630 </v>
   <v>       0.73745519       0.24243669       0.55135733 </v>
   <v>       0.78490467       0.28993575       0.55073472 </v>
   <v>       0.79811301       0.32164718       0.49289942 </v>
   <v>       0.81725811       0.30773873       0.61362907 </v>
   <v>       0.52529262       0.27901351       0.55276687 </v>
   <v>       0.52541419       0.23160217       0.55192312 </v>
   <v>       0.54327053       0.21824952       0.49363862 </v>
   <v>       0.51171543       0.19948290       0.61497673 </v>
   <v>       0.77374480       0.49094209       0.55242699 </v>
   <v>       0.72613823       0.49065377       0.55181300 </v>
   <v>       0.69475879       0.47272646       0.49365509 </v>
   <v>       0.70781257       0.50425550       0.61501207 </v>
   <v>       0.98495736       0.53801786       0.51981237 </v>
   <v>       0.95755088       0.48709868       0.54851134 </v>
   <v>       0.95964434       0.56482490       0.48459106 </v>
   <v>       0.54528811       0.97704751       0.51933468 </v>
   <v>       0.57309034       0.03151428       0.51834127 </v>
   <v>       0.54976719       0.05885569       0.54768080 </v>
   <v>       0.62486037       0.05698663       0.48228321 </v>
   <v>       0.45167895       0.47062665       0.52219051 </v>
   <v>       0.47839317       0.44288913       0.52107586 </v>
   <v>       0.52928582       0.46650337       0.54980578 </v>
   <v>       0.45185937       0.39086660       0.48556656 </v>
   <v>       0.33169475       0.78887602       0.49430165 </v>
   <v>       0.26426159       0.71559190       0.43180175 </v>
   <v>       0.31280559       0.76071976       0.43467605 </v>
   <v>       0.47772932       0.68448931       0.49571649 </v>
   <v>       0.47228761       0.75180998       0.43235262 </v>
   <v>       0.46883889       0.70325874       0.43573739 </v>
   <v>       0.45933400       0.76862062       0.36734639 </v>
   <v>       0.30032742       0.54372079       0.43276865 </v>
   <v>       0.25521979       0.54715411       0.43556445 </v>
   <v>       0.33045518       0.55655594       0.36805404 </v>
   <v>       0.70355084       0.22743393       0.49672889 </v>
   <v>       0.76830272       0.30212636       0.43358065 </v>
   <v>       0.72105598       0.25552043       0.43686720 </v>
   <v>       0.78398945       0.33189959       0.36851390 </v>
   <v>       0.54351123       0.31271435       0.49787657 </v>
   <v>       0.55275163       0.24776577       0.43421576 </v>
   <v>       0.55333431       0.29498143       0.43767399 </v>
   <v>       0.56617030       0.23179236       0.36888857 </v>
   <v>       0.78919110       0.47276423       0.49746936 </v>
   <v>       0.71462457       0.46305462       0.43420652 </v>
   <v>       0.76134511       0.46264432       0.43746768 </v>
   <v>       0.68506087       0.44927429       0.36900246 </v>
   <v>       0.14726157       0.53908003       0.53284658 </v>
   <v>       0.14890301       0.62062363       0.52357572 </v>
   <v>       0.21830736       0.61186131       0.47958851 </v>
   <v>       0.41229965       0.86878799       0.53252340 </v>
   <v>       0.49236713       0.86752985       0.52328023 </v>
   <v>       0.41445593       0.79815996       0.47857276 </v>
   <v>       0.47679037       0.60381964       0.53444545 </v>
   <v>       0.39538743       0.52382641       0.52511420 </v>
   <v>       0.40427034       0.60173888       0.47996402 </v>
   <v>       0.87185523       0.47925144       0.53720321 </v>
   <v>       0.88017100       0.40351777       0.52545839 </v>
   <v>       0.80692271       0.40452451       0.47977858 </v>
   <v>       0.62756578       0.14473972       0.53639542 </v>
   <v>       0.54342794       0.13622860       0.52518641 </v>
   <v>       0.61757077       0.20994255       0.47995192 </v>
   <v>       0.53749795       0.38884784       0.53856701 </v>
   <v>       0.61289586       0.47293871       0.52602859 </v>
   <v>       0.61182250       0.39872324       0.48000271 </v>
  </varray>
 </structure>
 <calculation>
  <scstep>
   <time name="dav">  500.89  505.73</time>
   <time name="total">  501.18  506.03</time>
   <energy>
    <i name="alphaZ">     83.03295692 </i>
    <i name="ewald">  74858.97945018 </i>
    <i name="hartreedc"> -90456.93564145 </i>
    <i name="XCdc">   1800.47704139 </i>
    <i name="pawpsdc">  46932.49090236 </i>
    <i name="pawaedc"> -47020.57316995 </i>
    <i name="eentropy">     -0.00000000 </i>
    <i name="bandstr">  -6322.35072191 </i>
    <i name="atom">  18904.00819202 </i>
    <i name="e_fr_energy">  -1220.87099043 </i>
    <i name="e_wo_entrp">  -1220.87099043 </i>
    <i name="e_0_energy">  -1220.87099043 </i>
   </energy>
  </scstep>
  <scstep>
   <time name="dav">  554.55  559.55</time>
   <time name="total">  554.57  559.57</time>
   <energy>
    <i name="e_fr_energy">  -1221.54362141 </i>
    <i name="e_wo_entrp">  -1221.54362141 </i>
    <i name="e_0_energy">  -1221.54362141 </i>
   </energy>
  </scstep>
  <scstep>
   <time name="dav">  650.12  656.07</time>
   <time name="total">  650.15  656.09</time>
   <energy>
    <i name="e_fr_energy">  -1221.56259764 </i>
    <i name="e_wo_entrp">  -1221.56259764 </i>
    <i name="e_0_energy">  -1221.56259764 </i>
   </energy>
  </scstep>
  <scstep>
   <time name="dav">  556.28  561.67</time>
   <time name="total">  556.30  561.70</time>
   <energy>
    <i name="e_fr_energy">  -1221.56281882 </i>
    <i name="e_wo_entrp">  -1221.56281882 </i>
    <i name="e_0_energy">  -1221.56281882 </i>
   </energy>
  </scstep>
  <scstep>
   <time name="dav">  536.61  541.73</time>
   <time name="total">  536.62  541.74</time>
   <energy>
    <i name="e_fr_energy">  -1221.56283027 </i>
    <i name="e_wo_entrp">  -1221.56283027 </i>
    <i name="e_0_energy">  -1221.56283027 </i>
   </energy>
  </scstep>
  <scstep>
   <time name="dav">  423.28  427.29</time>
   <time name="total">  423.29  427.30</time>
   <energy>
    <i name="alphaZ">     83.03295692 </i>
    <i name="ewald">  74858.97945018 </i>
    <i name="hartreedc"> -90456.93564145 </i>
    <i name="XCdc">   1800.47704139 </i>
    <i name="pawpsdc">  46932.49090236 </i>
    <i name="pawaedc"> -47020.57316995 </i>
    <i name="eentropy">     -0.00000000 </i>
    <i name="bandstr">  -6323.04256198 </i>
    <i name="atom">  18904.00819202 </i>
    <i name="e_fr_energy">  -1221.56283050 </i>
    <i name="e_wo_entrp">  -1221.56283050 </i>
    <i name="e_0_energy">  -1221.56283050 </i>
   </energy>
  </scstep>
  <structure>
   <crystal>
    <varray name="basis" >
     <v>      29.59274264       0.00021798       0.00000000 </v>
     <v>     -14.79620162      25.61571828       0.00000000 </v>
     <v>       0.00000000       0.00000000      20.00000000 </v>
    </varray>
    <i name="volume">  15160.85167857 </i>
    <varray name="rec_basis" >
     <v>       0.03379193       0.01951896       0.00000000 </v>
     <v>      -0.00000029       0.03903836       0.00000000 </v>
     <v>       0.00000000       0.00000000       0.05000000 </v>
    </varray>
   </crystal>
   <varray name="positions" >
    <v>       0.06204273       0.47607403       0.59945775 </v>
    <v>       0.06107549       0.60299902       0.49765302 </v>
    <v>       0.17686078       0.70607320       0.60215266 </v>
    <v>       0.23474701       0.74433535       0.64990752 </v>
    <v>       0.21268026       0.67756672       0.63252419 </v>
    <v>       0.21745812       0.50902807       0.59611468 </v>
    <v>       0.20461379       0.66115515       0.36339580 </v>
    <v>       0.94765660       0.38129569       0.58288852 </v>
    <v>       0.98706915       0.41362118       0.65386613 </v>
    <v>       0.92453103       0.40772157       0.64382561 </v>
    <v>       0.43471894       0.95417302       0.59972481 </v>
    <v>       0.45409932       0.06856429       0.58345434 </v>
    <v>       0.44744336       0.02918173       0.65431224 </v>
    <v>       0.50400893       0.09176928       0.64392690 </v>
    <v>       0.53977163       0.58167894       0.60148999 </v>
    <v>       0.63480853       0.56215621       0.58461241 </v>
    <v>       0.60250912       0.56932574       0.65555867 </v>
    <v>       0.60823436       0.51256415       0.64554039 </v>
    <v>       0.31197363       0.79878928       0.59492729 </v>
    <v>       0.50657205       0.70437033       0.59665835 </v>
    <v>       0.52876039       0.78156462       0.65121519 </v>
    <v>       0.54883007       0.83945014       0.60326568 </v>
    <v>       0.48423191       0.80357956       0.63270753 </v>
    <v>       0.27202339       0.48671710       0.65140231 </v>
    <v>       0.31033551       0.46693887       0.60405027 </v>
    <v>       0.33871913       0.53145345       0.63380937 </v>
    <v>       0.72472955       0.21947646       0.59731757 </v>
    <v>       0.79908554       0.27827350       0.65312456 </v>
    <v>       0.85690076       0.31478960       0.60490605 </v>
    <v>       0.82151388       0.34462104       0.63248424 </v>
    <v>       0.51565291       0.29191021       0.59903105 </v>
    <v>       0.50090078       0.21776077       0.65485704 </v>
    <v>       0.47905657       0.15976125       0.60684321 </v>
    <v>       0.54460375       0.19537033       0.63303281 </v>
    <v>       0.79640978       0.50069127       0.59858275 </v>
    <v>       0.73687211       0.51485013       0.65488557 </v>
    <v>       0.70091428       0.53703837       0.60709721 </v>
    <v>       0.67074452       0.47136085       0.63292820 </v>
    <v>       0.98982788       0.60060137       0.46046779 </v>
    <v>       0.93196913       0.54002086       0.44587873 </v>
    <v>       0.93738195       0.57500425       0.51921615 </v>
    <v>       0.56197681       0.95543875       0.49587571 </v>
    <v>       0.63023594       0.02689027       0.45752828 </v>
    <v>       0.62727856       0.08474079       0.44397399 </v>
    <v>       0.65765267       0.07922185       0.51645129 </v>
    <v>       0.41322222       0.45377614       0.49913711 </v>
    <v>       0.41601905       0.38512112       0.46150448 </v>
    <v>       0.47678179       0.38833001       0.44675234 </v>
    <v>       0.44187928       0.35833774       0.51998586 </v>
    <v>       0.33830005       0.77222169       0.39100277 </v>
    <v>       0.26125224       0.71216604       0.32442106 </v>
    <v>       0.26328822       0.65895935       0.36295241 </v>
    <v>       0.45508546       0.67764379       0.39214243 </v>
    <v>       0.47775075       0.81121187       0.36332317 </v>
    <v>       0.47249012       0.75452807       0.32493658 </v>
    <v>       0.41697715       0.75241689       0.36263085 </v>
    <v>       0.24360390       0.56090156       0.39174000 </v>
    <v>       0.35445041       0.53792514       0.36450383 </v>
    <v>       0.30342770       0.54344309       0.32540837 </v>
    <v>       0.35680396       0.59889725       0.36333621 </v>
    <v>       0.69543353       0.24251720       0.39326618 </v>
    <v>       0.82624856       0.35860594       0.36524857 </v>
    <v>       0.77220814       0.30456957       0.32625158 </v>
    <v>       0.76490825       0.35541061       0.36278782 </v>
    <v>       0.56541701       0.32044946       0.39392526 </v>
    <v>       0.55003705       0.18943009       0.36553514 </v>
    <v>       0.55075151       0.24390969       0.32685136 </v>
    <v>       0.60869403       0.25035463       0.36282094 </v>
    <v>       0.77460046       0.45049309       0.39367048 </v>
    <v>       0.65853895       0.46503762       0.36566117 </v>
    <v>       0.71249284       0.46478347       0.32686801 </v>
    <v>       0.66139580       0.40669201       0.36312041 </v>
    <v>       0.06738355       0.54202809       0.54689505 </v>
    <v>       0.04016425       0.49312842       0.57770816 </v>
    <v>       0.03940019       0.56453454       0.52068478 </v>
    <v>       0.12422205       0.56862888       0.53514021 </v>
    <v>       0.19414511       0.56256426       0.50271643 </v>
    <v>       0.19689123       0.64083760       0.49759951 </v>
    <v>       0.24910657       0.73000206       0.54872740 </v>
    <v>       0.23432522       0.69785210       0.49121212 </v>
    <v>       0.21664664       0.71381278       0.61163134 </v>
    <v>       0.24031029       0.51786503       0.55019373 </v>
    <v>       0.24722122       0.68526266       0.36720378 </v>
    <v>       0.22719554       0.53817973       0.49524326 </v>
    <v>       0.38910979       0.82204739       0.50193754 </v>
    <v>       0.46491021       0.89206346       0.53472319 </v>
    <v>       0.46471790       0.81951446       0.49721858 </v>
    <v>       0.45340710       0.62705189       0.50358025 </v>
    <v>       0.44733519       0.55121187       0.53680742 </v>
    <v>       0.37521173       0.55146410       0.49860547 </v>
    <v>       0.82599772       0.45275153       0.50494700 </v>
    <v>       0.90039641       0.45511958       0.53796184 </v>
    <v>       0.83217439       0.37936332       0.49892484 </v>
    <v>       0.64677774       0.19072463       0.50448581 </v>
    <v>       0.57489308       0.11607267       0.53732498 </v>
    <v>       0.56716173       0.18439006       0.49911488 </v>
    <v>       0.56374093       0.36953992       0.50559839 </v>
    <v>       0.56142199       0.44151027       0.53903657 </v>
    <v>       0.63703453       0.44909871       0.49939558 </v>
    <v>       0.98569554       0.46562858       0.58021343 </v>
    <v>       0.95975872       0.41433214       0.61728593 </v>
    <v>       0.49503475       0.94896088       0.54625421 </v>
    <v>       0.50040027       0.03061811       0.57995821 </v>
    <v>       0.47349159       0.97611804       0.57752570 </v>
    <v>       0.47524047       0.05650928       0.61753906 </v>
    <v>       0.47401187       0.52105832       0.54864375 </v>
    <v>       0.55052307       0.51598150       0.58182473 </v>
    <v>       0.52287179       0.54280610       0.57953533 </v>
    <v>       0.60175532       0.54127454       0.61897670 </v>
    <v>       0.29808790       0.77586109       0.54904656 </v>
    <v>       0.49789364       0.71818527       0.55044752 </v>
    <v>       0.50101348       0.76716565       0.54961464 </v>
    <v>       0.48416062       0.78191722       0.49159091 </v>
    <v>       0.51670110       0.79964593       0.61249809 </v>
    <v>       0.28619785       0.51483183       0.54998317 </v>
    <v>       0.31820945       0.53189309       0.49233647 </v>
    <v>       0.30251845       0.49898521       0.61312630 </v>
    <v>       0.73745519       0.24243669       0.55135733 </v>
    <v>       0.78490467       0.28993575       0.55073472 </v>
    <v>       0.79811301       0.32164718       0.49289942 </v>
    <v>       0.81725811       0.30773873       0.61362907 </v>
    <v>       0.52529262       0.27901351       0.55276687 </v>
    <v>       0.52541419       0.23160217       0.55192312 </v>
    <v>       0.54327053       0.21824952       0.49363862 </v>
    <v>       0.51171543       0.19948290       0.61497673 </v>
    <v>       0.77374480       0.49094209       0.55242699 </v>
    <v>       0.72613823       0.49065377       0.55181300 </v>
    <v>       0.69475879       0.47272646       0.49365509 </v>
    <v>       0.70781257       0.50425550       0.61501207 </v>
    <v>       0.98495736       0.53801786       0.51981237 </v>
    <v>       0.95755088       0.48709868       0.54851134 </v>
    <v>       0.95964434       0.56482490       0.48459106 </v>
    <v>       0.54528811       0.97704751       0.51933468 </v>
    <v>       0.57309034       0.03151428       0.51834127 </v>
    <v>       0.54976719       0.05885569       0.54768080 </v>
    <v>       0.62486037       0.05698663       0.48228321 </v>
    <v>       0.45167895       0.47062665       0.52219051 </v>
    <v>       0.47839317       0.44288913       0.52107586 </v>
    <v>       0.52928582       0.46650337       0.54980578 </v>
    <v>       0.45185937       0.39086660       0.48556656 </v>
    <v>       0.33169475       0.78887602       0.49430165 </v>
    <v>       0.26426159       0.71559190       0.43180175 </v>
    <v>       0.31280559       0.76071976       0.43467605 </v>
    <v>       0.47772932       0.68448931       0.49571649 </v>
    <v>       0.47228761       0.75180998       0.43235262 </v>
    <v>       0.46883889       0.70325874       0.43573739 </v>
    <v>       0.45933400       0.76862062       0.36734639 </v>
    <v>       0.30032742       0.54372079       0.43276865 </v>
    <v>       0.25521979       0.54715411       0.43556445 </v>
    <v>       0.33045518       0.55655594       0.36805404 </v>
    <v>       0.70355084       0.22743393       0.49672889 </v>
    <v>       0.76830272       0.30212636       0.43358065 </v>
    <v>       0.72105598       0.25552043       0.43686720 </v>
    <v>       0.78398945       0.33189959       0.36851390 </v>
    <v>       0.54351123       0.31271435       0.49787657 </v>
    <v>       0.55275163       0.24776577       0.43421576 </v>
    <v>       0.55333431       0.29498143       0.43767399 </v>
    <v>       0.56617030       0.23179236       0.36888857 </v>
    <v>       0.78919110       0.47276423       0.49746936 </v>
    <v>       0.71462457       0.46305462       0.43420652 </v>
    <v>       0.76134511       0.46264432       0.43746768 </v>
    <v>       0.68506087       0.44927429       0.36900246 </v>
    <v>       0.14726157       0.53908003       0.53284658 </v>
    <v>       0.14890301       0.62062363       0.52357572 </v>
    <v>       0.21830736       0.61186131       0.47958851 </v>
    <v>       0.41229965       0.86878799       0.53252340 </v>
    <v>       0.49236713       0.86752985       0.52328023 </v>
    <v>       0.41445593       0.79815996       0.47857276 </v>
    <v>       0.47679037       0.60381964       0.53444545 </v>
    <v>       0.39538743       0.52382641       0.52511420 </v>
    <v>       0.40427034       0.60173888       0.47996402 </v>
    <v>       0.87185523       0.47925144       0.53720321 </v>
    <v>       0.88017100       0.40351777       0.52545839 </v>
    <v>       0.80692271       0.40452451       0.47977858 </v>
    <v>       0.62756578       0.14473972       0.53639542 </v>
    <v>       0.54342794       0.13622860       0.52518641 </v>
    <v>       0.61757077       0.20994255       0.47995192 </v>
    <v>       0.53749795       0.38884784       0.53856701 </v>
    <v>       0.61289586       0.47293871       0.52602859 </v>
    <v>       0.61182250       0.39872324       0.48000271 </v>
   </varray>
  </structure>
  <varray name="forces" >
   <v>       0.00221735      -0.00056588       0.00075879 </v>
   <v>      -0.00003901       0.00152311       0.00154518 </v>
   <v>       0.00089772       0.00152374      -0.00101211 </v>
   <v>       0.00009390      -0.00028288      -0.00057501 </v>
   <v>      -0.00111697       0.00254972       0.00025505 </v>
   <v>       0.00022511      -0.00056146      -0.00194852 </v>
   <v>       0.00118194       0.00184069       0.00304722 </v>
   <v>       0.00084354       0.00111841      -0.00189619 </v>
   <v>       0.00155297      -0.00056682       0.00022726 </v>
   <v>      -0.00027415      -0.00021524      -0.00067174 </v>
   <v>       0.00031213      -0.00068398       0.00135278 </v>
   <v>      -0.00287630       0.00147836       0.00070939 </v>
   <v>      -0.00014206      -0.00126611      -0.00128214 </v>
   <v>       0.00036572       0.00018792      -0.00078208 </v>
   <v>       0.00062064      -0.00203531      -0.00141797 </v>
   <v>       0.00067485       0.00018473      -0.00022892 </v>
   <v>      -0.00103293      -0.00017820      -0.00140321 </v>
   <v>       0.00019587       0.00051414      -0.00083098 </v>
   <v>      -0.00156527       0.00199869       0.00045296 </v>
   <v>       0.00161079      -0.00042486      -0.00078381 </v>
   <v>       0.00264971      -0.00070864       0.00126513 </v>
   <v>       0.00102296       0.00136012      -0.00050435 </v>
   <v>      -0.00212740       0.00023966      -0.00075512 </v>
   <v>       0.00461789      -0.00109897      -0.00183460 </v>
   <v>      -0.00047086      -0.00138565       0.00012991 </v>
   <v>       0.00060101      -0.00121721       0.00076358 </v>
   <v>      -0.00111268      -0.00015932      -0.00196157 </v>
   <v>      -0.00011271       0.00015676       0.00083251 </v>
   <v>      -0.00382975       0.00041256      -0.00029116 </v>
   <v>       0.00227293      -0.00224000      -0.00190899 </v>
   <v>      -0.00131868       0.00135121      -0.00042132 </v>
   <v>      -0.00084520      -0.00032113       0.00036734 </v>
   <v>      -0.00111102       0.00028398      -0.00207937 </v>
   <v>      -0.00022120       0.00081853      -0.00200164 </v>
   <v>       0.00100140       0.00237263       0.00281960 </v>
   <v>      -0.00055397       0.00081826      -0.00112692 </v>
   <v>       0.00010871      -0.00047935       0.00139109 </v>
   <v>      -0.00068430       0.00014566       0.00020871 </v>
   <v>      -0.00029968      -0.00009725       0.00173233 </v>
   <v>      -0.00014502      -0.00109258       0.00121076 </v>
   <v>      -0.00123447      -0.00099715       0.00201073 </v>
   <v>       0.00062265      -0.00282137       0.00364836 </v>
   <v>       0.00292339      -0.00072693      -0.00185718 </v>
   <v>       0.00126032      -0.00071368      -0.00088101 </v>
   <v>      -0.00047904      -0.00100058       0.00309985 </v>
   <v>       0.00358858      -0.00034206       0.00237789 </v>
   <v>       0.00075235      -0.00151042       0.00279843 </v>
   <v>       0.00088670      -0.00088868       0.00024946 </v>
   <v>      -0.00070642      -0.00082869       0.00252525 </v>
   <v>       0.00173634       0.00144739      -0.00188634 </v>
   <v>       0.00124138      -0.00053238       0.00204797 </v>
   <v>       0.00020896       0.00049377      -0.00130338 </v>
   <v>       0.00056362       0.00086693       0.00011436 </v>
   <v>       0.00038889       0.00279798       0.00048847 </v>
   <v>       0.00158376      -0.00087717      -0.00073963 </v>
   <v>      -0.00167948      -0.00126309       0.00049401 </v>
   <v>       0.00202092      -0.00017971       0.00239164 </v>
   <v>      -0.00091556       0.00160042      -0.00112977 </v>
   <v>       0.00140340       0.00153027       0.00163855 </v>
   <v>       0.00021335      -0.00156731       0.00072964 </v>
   <v>       0.00009436      -0.00011604      -0.00028972 </v>
   <v>      -0.00067988       0.00022612       0.00080616 </v>
   <v>       0.00020627      -0.00049189       0.00108354 </v>
   <v>      -0.00014352       0.00022825       0.00044489 </v>
   <v>       0.00003262      -0.00038789      -0.00091805 </v>
   <v>       0.00056734      -0.00138877       0.00185171 </v>
   <v>      -0.00126468       0.00080002       0.00121384 </v>
   <v>       0.00118482       0.00044992       0.00184256 </v>
   <v>       0.00064441      -0.00068689      -0.00130365 </v>
   <v>      -0.00075503      -0.00013820       0.00200006 </v>
   <v>       0.00135099       0.00350994      -0.00172950 </v>
   <v>      -0.00264926      -0.00027347       0.00145273 </v>
   <v>       0.00160147      -0.00054722       0.00159750 </v>
   <v>      -0.00065671      -0.00093081      -0.00128393 </v>
   <v>      -0.00000947       0.00324478      -0.00261374 </v>
   <v>      -0.00121935      -0.00017265      -0.00073758 </v>
   <v>      -0.00300351      -0.00070955      -0.00015684 </v>
   <v>      -0.00096821       0.00126620      -0.00077882 </v>
   <v>       0.00053701      -0.00151973      -0.00172173 </v>
   <v>       0.00206195       0.00327220       0.00250566 </v>
   <v>      -0.00031653      -0.00086159      -0.00017984 </v>
   <v>      -0.00139923       0.00161550      -0.00402060 </v>
   <v>      -0.00126288      -0.00119410      -0.00149958 </v>
   <v>       0.00089756      -0.00216987       0.00252107 </v>
   <v>       0.00539540       0.00217748       0.00057744 </v>
   <v>       0.00481678      -0.00056705       0.00088753 </v>
   <v>       0.00134220      -0.00496566       0.00040988 </v>
   <v>       0.00717668       0.00026314       0.00158162 </v>
[...]
       <r>   -12.8627    25.7653   194.2875 </r>
       <r>   -12.7648     7.5916   195.1760 </r>
       <r>   -12.6670    19.1554   197.5744 </r>
       <r>   -12.5692     0.0000   198.0000 </r>
       <r>   -12.4713     0.0000   198.0000 </r>
       <r>   -12.3735    61.3279   203.9999 </r>
       <r>   -12.2757    20.3548   205.9914 </r>
       <r>   -12.1778     0.0000   210.0000 </r>
       <r>   -12.0800     0.0000   210.0000 </r>
       <r>   -11.9822     0.0000   210.0000 </r>
       <r>   -11.8843     0.0000   210.0000 </r>
       <r>   -11.7865     0.0000   210.0000 </r>
       <r>   -11.6887    57.8150   215.6562 </r>
       <r>   -11.5908    36.7866   219.9329 </r>
       <r>   -11.4930     9.0293   220.8834 </r>
       <r>   -11.3952    22.7070   223.6219 </r>
       <r>   -11.2973    27.6979   227.5431 </r>
       <r>   -11.1995    51.4306   233.0316 </r>
       <r>   -11.1017    29.3408   236.4041 </r>
       <r>   -11.0038    18.1244   238.4400 </r>
       <r>   -10.9060     9.3296   240.0130 </r>
       <r>   -10.8082    45.1431   244.9842 </r>
       <r>   -10.7103     0.0000   248.0000 </r>
       <r>   -10.6125     0.0000   248.0000 </r>
       <r>   -10.5147     0.0000   248.0000 </r>
       <r>   -10.4168     5.4576   248.5339 </r>
       <r>   -10.3190    22.1808   252.1700 </r>
       <r>   -10.2212    38.6565   257.7819 </r>
       <r>   -10.1233    11.8009   259.1545 </r>
       <r>   -10.0255    41.9000   264.0000 </r>
       <r>    -9.9277    57.5225   269.6276 </r>
       <r>    -9.8298    66.8291   276.5381 </r>
       <r>    -9.7320    66.0399   288.1976 </r>
       <r>    -9.6342    37.0314   294.0233 </r>
       <r>    -9.5364    46.9146   299.5573 </r>
       <r>    -9.4385   125.9526   313.8910 </r>
       <r>    -9.3407    87.8981   325.2724 </r>
       <r>    -9.2429   166.8391   342.3278 </r>
       <r>    -9.1450    81.8535   352.0080 </r>
       <r>    -9.0472     0.0000   354.0000 </r>
       <r>    -8.9494     0.3581   354.0350 </r>
       <r>    -8.8515    15.6127   355.8944 </r>
       <r>    -8.7537    12.2090   357.1944 </r>
       <r>    -8.6559    47.4597   362.0433 </r>
       <r>    -8.5580    92.4761   372.4146 </r>
       <r>    -8.4602    60.9617   379.9641 </r>
       <r>    -8.3624    34.6196   387.3869 </r>
       <r>    -8.2645    61.3291   396.0000 </r>
       <r>    -8.1667    30.7372   399.0071 </r>
       <r>    -8.0689    36.5951   403.5809 </r>
       <r>    -7.9710    41.2851   408.0390 </r>
       <r>    -7.8732    12.5982   410.0000 </r>
       <r>    -7.7754    94.1226   419.2083 </r>
       <r>    -7.6775    84.5193   429.3695 </r>
       <r>    -7.5797    40.8813   435.9995 </r>
       <r>    -7.4819    21.3040   438.0842 </r>
       <r>    -7.3840    25.9772   443.2760 </r>
       <r>    -7.2862    65.0714   449.9996 </r>
       <r>    -7.1884    61.1822   455.9856 </r>
       <r>    -7.0905    25.0740   458.4531 </r>
       <r>    -6.9927    29.1524   461.7857 </r>
       <r>    -6.8949     0.0000   462.0000 </r>
       <r>    -6.7970     0.0000   462.0000 </r>
       <r>    -6.6992     0.0000   462.0000 </r>
       <r>    -6.6014     0.0000   462.0000 </r>
       <r>    -6.5035     0.0000   462.0000 </r>
       <r>    -6.4057     0.0000   462.0000 </r>
       <r>    -6.3079     0.0000   462.0000 </r>
       <r>    -6.2100     0.0000   462.0000 </r>
       <r>    -6.1122     0.0000   462.0000 </r>
       <r>    -6.0144     0.0000   462.0000 </r>
       <r>    -5.9165     0.0000   462.0000 </r>
       <r>    -5.8187    41.3919   466.0495 </r>
       <r>    -5.7209    73.9758   477.5392 </r>
       <r>    -5.6230    41.6152   486.0713 </r>
       <r>    -5.5252   113.4969   498.0399 </r>
       <r>    -5.4274    64.2115   508.2820 </r>
       <r>    -5.3295    20.4430   512.0000 </r>
       <r>    -5.2317    23.6384   514.3126 </r>
       <r>    -5.1339    40.8640   521.9978 </r>
       <r>    -5.0360     0.0000   522.0000 </r>
       <r>    -4.9382     0.0000   522.0000 </r>
       <r>    -4.8404     0.0000   522.0000 </r>
       <r>    -4.7425     0.0000   522.0000 </r>
       <r>    -4.6447     0.0000   522.0000 </r>
       <r>    -4.5469     0.0000   522.0000 </r>
       <r>    -4.4490     0.0000   522.0000 </r>
       <r>    -4.3512     0.0000   522.0000 </r>
       <r>    -4.2534     0.0000   522.0000 </r>
       <r>    -4.1555     0.0000   522.0000 </r>
       <r>    -4.0577     0.0000   522.0000 </r>
       <r>    -3.9599     0.0000   522.0000 </r>
       <r>    -3.8620     0.0000   522.0000 </r>
       <r>    -3.7642     0.0000   522.0000 </r>
       <r>    -3.6664     0.0000   522.0000 </r>
       <r>    -3.5685     0.0000   522.0000 </r>
       <r>    -3.4707     0.0000   522.0000 </r>
       <r>    -3.3729     0.0000   522.0000 </r>
       <r>    -3.2751     0.0000   522.0000 </r>
       <r>    -3.1772     0.0000   522.0000 </r>
       <r>    -3.0794     0.0000   522.0000 </r>
       <r>    -2.9816     0.0000   522.0000 </r>
       <r>    -2.8837     0.0000   522.0000 </r>
       <r>    -2.7859     0.0000   522.0000 </r>
       <r>    -2.6881     0.0000   522.0000 </r>
       <r>    -2.5902    61.1768   527.9851 </r>
       <r>    -2.4924     0.0000   528.0000 </r>
       <r>    -2.3946     0.0000   528.0000 </r>
       <r>    -2.2967    35.2538   531.4490 </r>
       <r>    -2.1989    40.8861   536.0000 </r>
       <r>    -2.1011     0.0000   536.0000 </r>
       <r>    -2.0032     0.0000   536.0000 </r>
       <r>    -1.9054     3.3356   536.3263 </r>
       <r>    -1.8076    13.9259   537.9958 </r>
       <r>    -1.7097    11.2085   539.3634 </r>
       <r>    -1.6119    49.7236   544.3647 </r>
       <r>    -1.5141     0.0000   546.0000 </r>
       <r>    -1.4162     0.0000   546.0000 </r>
       <r>    -1.3184     0.0000   546.0000 </r>
       <r>    -1.2206     5.9327   546.5804 </r>
       <r>    -1.1227    10.1320   547.6914 </r>
       <r>    -1.0249    10.5615   549.0333 </r>
       <r>    -0.9271     8.2218   549.9711 </r>
       <r>    -0.8292     0.0000   550.0000 </r>
       <r>    -0.7314    47.9498   554.6911 </r>
       <r>    -0.6336    64.6185   562.3218 </r>
       <r>    -0.5357    20.4395   568.0000 </r>
       <r>    -0.4379     0.0000   568.0000 </r>
       <r>    -0.3401     0.0052   568.0005 </r>
       <r>    -0.2422    47.6554   572.6628 </r>
       <r>    -0.1444    50.3796   578.9288 </r>
       <r>    -0.0466     4.4966   580.0067 </r>
       <r>     0.0513    59.4509   586.2859 </r>
       <r>     0.1491    47.3227   592.1310 </r>
       <r>     0.2469    42.5802   597.8002 </r>
       <r>     0.3448    39.1985   601.8350 </r>
       <r>     0.4426    30.7923   605.0125 </r>
       <r>     0.5404    64.6706   611.7277 </r>
       <r>     0.6383    44.3272   616.6378 </r>
       <r>     0.7361    56.0965   622.3885 </r>
       <r>     0.8339    78.3408   631.0001 </r>
       <r>     0.9318    70.4963   639.6980 </r>
       <r>     1.0296    78.6437   649.5285 </r>
       <r>     1.1274    91.1927   659.5899 </r>
       <r>     1.2253    83.1672   669.4038 </r>
       <r>     1.3231    84.4902   679.5668 </r>
       <r>     1.4209    95.6499   690.9257 </r>
       <r>     1.5188    91.0556   702.1432 </r>
       <r>     1.6166     6.4688   704.0000 </r>
       <r>     1.7144     0.0000   704.0000 </r>
       <r>     1.8123     0.0000   704.0000 </r>
       <r>     1.9101     0.0000   704.0000 </r>
       <r>     2.0079     0.0000   704.0000 </r>
       <r>     2.1058     0.0000   704.0000 </r>
       <r>     2.2036     0.0000   704.0000 </r>
       <r>     2.3014     0.0000   704.0000 </r>
       <r>     2.3993     0.0000   704.0000 </r>
       <r>     2.4971     0.0000   704.0000 </r>
       <r>     2.5949     0.0000   704.0000 </r>
       <r>     2.6928     0.0000   704.0000 </r>
       <r>     2.7906     0.0000   704.0000 </r>
       <r>     2.8884     0.0000   704.0000 </r>
      </set>
     </set>
    </array>
   </total>
  </dos>
 </calculation>
 <structure name="finalpos" >
  <crystal>
   <varray name="basis" >
    <v>      29.59274264       0.00021798       0.00000000 </v>
    <v>     -14.79620162      25.61571828       0.00000000 </v>
    <v>       0.00000000       0.00000000      20.00000000 </v>
   </varray>
   <i name="volume">  15160.85167857 </i>
   <varray name="rec_basis" >
    <v>       0.03379193       0.01951896       0.00000000 </v>
    <v>      -0.00000029       0.03903836       0.00000000 </v>
    <v>       0.00000000       0.00000000       0.05000000 </v>
   </varray>
  </crystal>
  <varray name="positions" >
   <v>       0.06204273       0.47607403       0.59945775 </v>
   <v>       0.06107549       0.60299902       0.49765302 </v>
   <v>       0.17686078       0.70607320       0.60215266 </v>
   <v>       0.23474701       0.74433535       0.64990752 </v>
   <v>       0.21268026       0.67756672       0.63252419 </v>
   <v>       0.21745812       0.50902807       0.59611468 </v>
   <v>       0.20461379       0.66115515       0.36339580 </v>
   <v>       0.94765660       0.38129569       0.58288852 </v>
   <v>       0.98706915       0.41362118       0.65386613 </v>
   <v>       0.92453103       0.40772157       0.64382561 </v>
   <v>       0.43471894       0.95417302       0.59972481 </v>
   <v>       0.45409932       0.06856429       0.58345434 </v>
   <v>       0.44744336       0.02918173       0.65431224 </v>
   <v>       0.50400893       0.09176928       0.64392690 </v>
   <v>       0.53977163       0.58167894       0.60148999 </v>
   <v>       0.63480853       0.56215621       0.58461241 </v>
   <v>       0.60250912       0.56932574       0.65555867 </v>
   <v>       0.60823436       0.51256415       0.64554039 </v>
   <v>       0.31197363       0.79878928       0.59492729 </v>
   <v>       0.50657205       0.70437033       0.59665835 </v>
   <v>       0.52876039       0.78156462       0.65121519 </v>
   <v>       0.54883007       0.83945014       0.60326568 </v>
   <v>       0.48423191       0.80357956       0.63270753 </v>
   <v>       0.27202339       0.48671710       0.65140231 </v>
   <v>       0.31033551       0.46693887       0.60405027 </v>
   <v>       0.33871913       0.53145345       0.63380937 </v>
   <v>       0.72472955       0.21947646       0.59731757 </v>
   <v>       0.79908554       0.27827350       0.65312456 </v>
   <v>       0.85690076       0.31478960       0.60490605 </v>
   <v>       0.82151388       0.34462104       0.63248424 </v>
   <v>       0.51565291       0.29191021       0.59903105 </v>
   <v>       0.50090078       0.21776077       0.65485704 </v>
   <v>       0.47905657       0.15976125       0.60684321 </v>
   <v>       0.54460375       0.19537033       0.63303281 </v>
   <v>       0.79640978       0.50069127       0.59858275 </v>
   <v>       0.73687211       0.51485013       0.65488557 </v>
   <v>       0.70091428       0.53703837       0.60709721 </v>
   <v>       0.67074452       0.47136085       0.63292820 </v>
   <v>       0.98982788       0.60060137       0.46046779 </v>
   <v>       0.93196913       0.54002086       0.44587873 </v>
   <v>       0.93738195       0.57500425       0.51921615 </v>
   <v>       0.56197681       0.95543875       0.49587571 </v>
   <v>       0.63023594       0.02689027       0.45752828 </v>
   <v>       0.62727856       0.08474079       0.44397399 </v>
   <v>       0.65765267       0.07922185       0.51645129 </v>
   <v>       0.41322222       0.45377614       0.49913711 </v>
   <v>       0.41601905       0.38512112       0.46150448 </v>
   <v>       0.47678179       0.38833001       0.44675234 </v>
   <v>       0.44187928       0.35833774       0.51998586 </v>
   <v>       0.33830005       0.77222169       0.39100277 </v>
   <v>       0.26125224       0.71216604       0.32442106 </v>
   <v>       0.26328822       0.65895935       0.36295241 </v>
   <v>       0.45508546       0.67764379       0.39214243 </v>
   <v>       0.47775075       0.81121187       0.36332317 </v>
   <v>       0.47249012       0.75452807       0.32493658 </v>
   <v>       0.41697715       0.75241689       0.36263085 </v>
   <v>       0.24360390       0.56090156       0.39174000 </v>
   <v>       0.35445041       0.53792514       0.36450383 </v>
   <v>       0.30342770       0.54344309       0.32540837 </v>
   <v>       0.35680396       0.59889725       0.36333621 </v>
   <v>       0.69543353       0.24251720       0.39326618 </v>
   <v>       0.82624856       0.35860594       0.36524857 </v>
   <v>       0.77220814       0.30456957       0.32625158 </v>
   <v>       0.76490825       0.35541061       0.36278782 </v>
   <v>       0.56541701       0.32044946       0.39392526 </v>
   <v>       0.55003705       0.18943009       0.36553514 </v>
   <v>       0.55075151       0.24390969       0.32685136 </v>
   <v>       0.60869403       0.25035463       0.36282094 </v>
   <v>       0.77460046       0.45049309       0.39367048 </v>
   <v>       0.65853895       0.46503762       0.36566117 </v>
   <v>       0.71249284       0.46478347       0.32686801 </v>
   <v>       0.66139580       0.40669201       0.36312041 </v>
   <v>       0.06738355       0.54202809       0.54689505 </v>
   <v>       0.04016425       0.49312842       0.57770816 </v>
   <v>       0.03940019       0.56453454       0.52068478 </v>
   <v>       0.12422205       0.56862888       0.53514021 </v>
   <v>       0.19414511       0.56256426       0.50271643 </v>
   <v>       0.19689123       0.64083760       0.49759951 </v>
   <v>       0.24910657       0.73000206       0.54872740 </v>
   <v>       0.23432522       0.69785210       0.49121212 </v>
   <v>       0.21664664       0.71381278       0.61163134 </v>
   <v>       0.24031029       0.51786503       0.55019373 </v>
   <v>       0.24722122       0.68526266       0.36720378 </v>
   <v>       0.22719554       0.53817973       0.49524326 </v>
   <v>       0.38910979       0.82204739       0.50193754 </v>
   <v>       0.46491021       0.89206346       0.53472319 </v>
   <v>       0.46471790       0.81951446       0.49721858 </v>
   <v>       0.45340710       0.62705189       0.50358025 </v>
   <v>       0.44733519       0.55121187       0.53680742 </v>
   <v>       0.37521173       0.55146410       0.49860547 </v>
   <v>       0.82599772       0.45275153       0.50494700 </v>
   <v>       0.90039641       0.45511958       0.53796184 </v>
   <v>       0.83217439       0.37936332       0.49892484 </v>
   <v>       0.64677774       0.19072463       0.50448581 </v>
   <v>       0.57489308       0.11607267       0.53732498 </v>
   <v>       0.56716173       0.18439006       0.49911488 </v>
   <v>       0.56374093       0.36953992       0.50559839 </v>
   <v>       0.56142199       0.44151027       0.53903657 </v>
   <v>       0.63703453       0.44909871       0.49939558 </v>
   <v>       0.98569554       0.46562858       0.58021343 </v>
   <v>       0.95975872       0.41433214       0.61728593 </v>
   <v>       0.49503475       0.94896088       0.54625421 </v>
   <v>       0.50040027       0.03061811       0.57995821 </v>
   <v>       0.47349159       0.97611804       0.57752570 </v>
   <v>       0.47524047       0.05650928       0.61753906 </v>
   <v>       0.47401187       0.52105832       0.54864375 </v>
   <v>       0.55052307       0.51598150       0.58182473 </v>
   <v>       0.52287179       0.54280610       0.57953533 </v>
   <v>       0.60175532       0.54127454       0.61897670 </v>
   <v>       0.29808790       0.77586109       0.54904656 </v>
   <v>       0.49789364       0.71818527       0.55044752 </v>
   <v>       0.50101348       0.76716565       0.54961464 </v>
   <v>       0.48416062       0.78191722       0.49159091 </v>
   <v>       0.51670110       0.79964593       0.61249809 </v>
   <v>       0.28619785       0.51483183       0.54998317 </v>
   <v>       0.31820945       0.53189309       0.49233647 </v>
   <v>       0.30251845       0.49898521       0.61312630 </v>
   <v>       0.73745519       0.24243669       0.55135733 </v>
   <v>       0.78490467       0.28993575       0.55073472 </v>
   <v>       0.79811301       0.32164718       0.49289942 </v>
   <v>       0.81725811       0.30773873       0.61362907 </v>
   <v>       0.52529262       0.27901351       0.55276687 </v>
   <v>       0.52541419       0.23160217       0.55192312 </v>
   <v>       0.54327053       0.21824952       0.49363862 </v>
   <v>       0.51171543       0.19948290       0.61497673 </v>
   <v>       0.77374480       0.49094209       0.55242699 </v>
   <v>       0.72613823       0.49065377       0.55181300 </v>
   <v>       0.69475879       0.47272646       0.49365509 </v>
   <v>       0.70781257       0.50425550       0.61501207 </v>
   <v>       0.98495736       0.53801786       0.51981237 </v>
   <v>       0.95755088       0.48709868       0.54851134 </v>
   <v>       0.95964434       0.56482490       0.48459106 </v>
   <v>       0.54528811       0.97704751       0.51933468 </v>
   <v>       0.57309034       0.03151428       0.51834127 </v>
   <v>       0.54976719       0.05885569       0.54768080 </v>
   <v>       0.62486037       0.05698663       0.48228321 </v>
   <v>       0.45167895       0.47062665       0.52219051 </v>
   <v>       0.47839317       0.44288913       0.52107586 </v>
   <v>       0.52928582       0.46650337       0.54980578 </v>
   <v>       0.45185937       0.39086660       0.48556656 </v>
   <v>       0.33169475       0.78887602       0.49430165 </v>
   <v>       0.26426159       0.71559190       0.43180175 </v>
   <v>       0.31280559       0.76071976       0.43467605 </v>
   <v>       0.47772932       0.68448931       0.49571649 </v>
   <v>       0.47228761       0.75180998       0.43235262 </v>
   <v>       0.46883889       0.70325874       0.43573739 </v>
   <v>       0.45933400       0.76862062       0.36734639 </v>
   <v>       0.30032742       0.54372079       0.43276865 </v>
   <v>       0.25521979       0.54715411       0.43556445 </v>
   <v>       0.33045518       0.55655594       0.36805404 </v>
   <v>       0.70355084       0.22743393       0.49672889 </v>
   <v>       0.76830272       0.30212636       0.43358065 </v>
   <v>       0.72105598       0.25552043       0.43686720 </v>
   <v>       0.78398945       0.33189959       0.36851390 </v>
   <v>       0.54351123       0.31271435       0.49787657 </v>
   <v>       0.55275163       0.24776577       0.43421576 </v>
   <v>       0.55333431       0.29498143       0.43767399 </v>
   <v>       0.56617030       0.23179236       0.36888857 </v>
   <v>       0.78919110       0.47276423       0.49746936 </v>
   <v>       0.71462457       0.46305462       0.43420652 </v>
   <v>       0.76134511       0.46264432       0.43746768 </v>
   <v>       0.68506087       0.44927429       0.36900246 </v>
   <v>       0.14726157       0.53908003       0.53284658 </v>
   <v>       0.14890301       0.62062363       0.52357572 </v>
   <v>       0.21830736       0.61186131       0.47958851 </v>
   <v>       0.41229965       0.86878799       0.53252340 </v>
   <v>       0.49236713       0.86752985       0.52328023 </v>
   <v>       0.41445593       0.79815996       0.47857276 </v>
   <v>       0.47679037       0.60381964       0.53444545 </v>
   <v>       0.39538743       0.52382641       0.52511420 </v>
   <v>       0.40427034       0.60173888       0.47996402 </v>
   <v>       0.87185523       0.47925144       0.53720321 </v>
   <v>       0.88017100       0.40351777       0.52545839 </v>
   <v>       0.80692271       0.40452451       0.47977858 </v>
   <v>       0.62756578       0.14473972       0.53639542 </v>
   <v>       0.54342794       0.13622860       0.52518641 </v>
   <v>       0.61757077       0.20994255       0.47995192 </v>
   <v>       0.53749795       0.38884784       0.53856701 </v>
   <v>       0.61289586       0.47293871       0.52602859 </v>
   <v>       0.61182250       0.39872324       0.48000271 </v>
  </varray>
 </structure>
</modeling>
