<?xml version="1.0" encoding="ISO-8859-1"?>
<modeling>
 <generator>
  <i name="program" type="string">vasp </i>
  <i name="version" type="string">5.4.4.18Apr17-6-g9f103f2a35  </i>
  <i name="subversion" type="string">(build Jun 07 2020 16:50:00) complex            parallel </i>
  <i name="platform" type="string">LinuxIFC </i>
  <i name="date" type="string">2023 02 11 </i>
  <i name="time" type="string">23:22:31 </i>
 </generator>
 <incar>
  <i type="string" name="SYSTEM">Simulation for cell shape cell volume r</i>
  <i type="int" name="ISTART">     1</i>
  <i type="string" name="PREC">high</i>
  <i type="string" name="ALGO">48</i>
  <i type="int" name="ICHARG">    11</i>
  <i type="int" name="NELM">   200</i>
  <i type="int" name="IBRION">    -1</i>
  <i name="EDIFF">      0.00001000</i>
  <i name="EDIFFG">     -0.01000000</i>
  <i type="int" name="NSW">     0</i>
  <i type="int" name="ISIF">     2</i>
  <i name="ENCUT">    500.00000000</i>
  <i name="POTIM">      0.30000000</i>
  <i type="string" name="LREAL">A</i>
  <i type="int" name="ISMEAR">     0</i>
  <i name="SIGMA">      0.01000000</i>
  <i type="int" name="NWRITE">     0</i>
  <i type="logical" name="LWAVE"> F  </i>
  <i type="logical" name="LCHARG"> F  </i>
  <v type="int" name="KPOINT_BSE">    -1     0     0     0</v>
  <i type="int" name="NELM">   200</i>
  <i type="string" name="GGA">PE</i>
 </incar>
 <structure name="primitive_cell" >
  <crystal>
   <varray name="basis" >
    <v>      21.10455298       0.01615468       0.00000000 </v>
    <v>     -10.53402558      18.25083513       0.00000000 </v>
    <v>       0.00000000       0.00000000      20.00000000 </v>
   </varray>
   <i name="volume">   7706.91781596 </i>
   <varray name="rec_basis" >
    <v>       0.04736222       0.02733655       0.00000000 </v>
    <v>      -0.00004192       0.05476782       0.00000000 </v>
    <v>       0.00000000       0.00000000       0.05000000 </v>
   </varray>
  </crystal>
  <varray name="positions" >
   <v>      -0.04225955      -0.08445415      -0.43207643 </v>
   <v>      -0.06770688      -0.03758985      -0.43150827 </v>
   <v>       0.03109532      -0.05292486      -0.43193438 </v>
   <v>      -0.02587507       0.03585759      -0.43068158 </v>
   <v>       0.07782840       0.01933975      -0.43112100 </v>
   <v>      -0.04419621      -0.19731464      -0.45577946 </v>
   <v>       0.06129960      -0.10309910      -0.43883816 </v>
   <v>      -0.14800097      -0.06767180      -0.43786015 </v>
   <v>       0.04631481       0.06129249      -0.43114020 </v>
   <v>      -0.19155382      -0.14167513      -0.43180477 </v>
   <v>       0.01470009      -0.17612561      -0.45398043 </v>
   <v>       0.13519970      -0.07274353      -0.43285884 </v>
   <v>      -0.17439098      -0.02087246      -0.45250150 </v>
   <v>      -0.13664994       0.03808300      -0.45442197 </v>
   <v>      -0.26105781      -0.17071858      -0.44717381 </v>
   <v>       0.09654043       0.14166250      -0.43779040 </v>
   <v>       0.04509631      -0.22067407      -0.46886518 </v>
   <v>       0.16433385      -0.11316896      -0.44851033 </v>
   <v>       0.19089390       0.13013310      -0.45302549 </v>
   <v>      -0.24937670      -0.05113263      -0.46660058 </v>
   <v>      -0.05233908      -0.31452008      -0.48680149 </v>
   <v>      -0.29039035      -0.12955027      -0.46725737 </v>
   <v>       0.12339873      -0.18346334      -0.46915065 </v>
   <v>       0.06614514       0.18534691      -0.43273499 </v>
   <v>       0.16970836       0.16794349      -0.45188726 </v>
   <v>       0.00250514      -0.29253778      -0.48309117 </v>
   <v>       0.02828159      -0.32058663      -0.49746694 </v>
   <v>      -0.27881247      -0.00838961      -0.47974548 </v>
   <v>       0.10667671       0.25485927      -0.44846201 </v>
   <v>      -0.36533385      -0.17121933      -0.49413332 </v>
   <v>      -0.24588767       0.04647510      -0.48395966 </v>
   <v>       0.21443370       0.24288224      -0.46655589 </v>
   <v>       0.16517170      -0.21677906      -0.49597432 </v>
   <v>      -0.39263663      -0.24332278       0.49405321 </v>
   <v>      -0.40091926      -0.33140172      -0.45418651 </v>
   <v>       0.17718829       0.28404711      -0.46810767 </v>
   <v>      -0.33253211      -0.03419334      -0.49423989 </v>
   <v>       0.12916459      -0.28940996       0.49019846 </v>
   <v>       0.23732195      -0.17218065       0.49286328 </v>
   <v>       0.30853583       0.23916938      -0.48264089 </v>
   <v>      -0.40195327      -0.13508088       0.49252226 </v>
   <v>       0.28651723       0.27212447      -0.47942652 </v>
   <v>      -0.44379917      -0.38400823      -0.45308643 </v>
   <v>       0.32483672      -0.09237768      -0.45517327 </v>
   <v>      -0.45512595      -0.27602236       0.45881751 </v>
   <v>      -0.44961418      -0.41720463      -0.41423722 </v>
   <v>       0.21071607       0.35901737      -0.49526493 </v>
   <v>       0.31465959       0.32588947      -0.49395753 </v>
   <v>       0.16835763      -0.31352007       0.45618937 </v>
   <v>       0.27011382      -0.20184683       0.45747392 </v>
   <v>      -0.46504871      -0.17409154       0.45834807 </v>
   <v>      -0.49746691      -0.40441635      -0.49919133 </v>
   <v>      -0.49509685      -0.35599973       0.44993967 </v>
   <v>      -0.49092829      -0.24229714       0.43623503 </v>
   <v>       0.16618494       0.38649717       0.49241159 </v>
   <v>       0.37733445      -0.08286613      -0.45381203 </v>
   <v>       0.08372284      -0.42911031      -0.45847922 </v>
   <v>       0.23650454      -0.27116101       0.43429595 </v>
   <v>       0.08566798       0.39431397      -0.45666403 </v>
   <v>       0.28344472       0.39556102       0.49181438 </v>
   <v>       0.41064654      -0.05490043      -0.41525577 </v>
   <v>       0.14196104      -0.39294838       0.44789613 </v>
   <v>       0.35002353      -0.16202325       0.44913085 </v>
   <v>      -0.49665754      -0.08999193      -0.45609306 </v>
   <v>       0.10719271      -0.44285640       0.49909300 </v>
   <v>       0.48215417      -0.14752972       0.44992826 </v>
   <v>       0.39804543      -0.11597663      -0.49985618 </v>
   <v>       0.46135261      -0.38066843       0.39534984 </v>
   <v>       0.43676900      -0.47291772      -0.49848725 </v>
   <v>       0.07609601       0.43735603      -0.45572840 </v>
   <v>       0.19624080       0.44902810       0.45713165 </v>
   <v>       0.46656117      -0.11316007      -0.49880998 </v>
   <v>       0.30788202       0.45884074       0.45764497 </v>
   <v>       0.04802814       0.44294038      -0.41737896 </v>
   <v>       0.42285568       0.49003074      -0.45589070 </v>
   <v>       0.16696218      -0.40986524       0.39136341 </v>
   <v>       0.37501608      -0.18102425       0.39482342 </v>
   <v>       0.44082889      -0.17220318       0.39305947 </v>
   <v>       0.26582967       0.48476002       0.43490955 </v>
   <v>       0.40439754      -0.44652229       0.39323509 </v>
   <v>       0.15638779       0.48912256       0.44794846 </v>
   <v>       0.10986691       0.49125304       0.49840415 </v>
   <v>       0.38724836      -0.48821334       0.44994887 </v>
   <v>       0.17575029      -0.46698792       0.39353888 </v>
  </varray>
 </structure>
 <varray name="primitive_index" >
  <v type="int" >        1 </v>
  <v type="int" >       61 </v>
  <v type="int" >       49 </v>
  <v type="int" >       10 </v>
  <v type="int" >        2 </v>
  <v type="int" >       31 </v>
  <v type="int" >       50 </v>
  <v type="int" >       77 </v>
  <v type="int" >       60 </v>
  <v type="int" >       18 </v>
  <v type="int" >       51 </v>
  <v type="int" >        3 </v>
  <v type="int" >       78 </v>
  <v type="int" >       47 </v>
  <v type="int" >       17 </v>
  <v type="int" >       81 </v>
  <v type="int" >       53 </v>
  <v type="int" >        5 </v>
  <v type="int" >       33 </v>
  <v type="int" >       79 </v>
  <v type="int" >       34 </v>
  <v type="int" >       80 </v>
  <v type="int" >       54 </v>
  <v type="int" >       20 </v>
  <v type="int" >       82 </v>
  <v type="int" >        6 </v>
  <v type="int" >       35 </v>
  <v type="int" >       23 </v>
  <v type="int" >       19 </v>
  <v type="int" >       63 </v>
  <v type="int" >       45 </v>
  <v type="int" >       83 </v>
  <v type="int" >       52 </v>
  <v type="int" >       12 </v>
  <v type="int" >       41 </v>
  <v type="int" >       84 </v>
  <v type="int" >       46 </v>
  <v type="int" >        7 </v>
  <v type="int" >        4 </v>
  <v type="int" >       32 </v>
  <v type="int" >       11 </v>
  <v type="int" >       24 </v>
  <v type="int" >       21 </v>
  <v type="int" >       37 </v>
  <v type="int" >       64 </v>
  <v type="int" >       40 </v>
  <v type="int" >       66 </v>
  <v type="int" >       48 </v>
  <v type="int" >       55 </v>
  <v type="int" >       56 </v>
  <v type="int" >       62 </v>
  <v type="int" >       72 </v>
  <v type="int" >       73 </v>
  <v type="int" >       13 </v>
  <v type="int" >       15 </v>
  <v type="int" >        9 </v>
  <v type="int" >       38 </v>
  <v type="int" >        8 </v>
  <v type="int" >       44 </v>
  <v type="int" >       14 </v>
  <v type="int" >       36 </v>
  <v type="int" >       59 </v>
  <v type="int" >       58 </v>
  <v type="int" >       39 </v>
  <v type="int" >       74 </v>
  <v type="int" >       68 </v>
  <v type="int" >       57 </v>
  <v type="int" >       27 </v>
  <v type="int" >       71 </v>
  <v type="int" >       22 </v>
  <v type="int" >       67 </v>
  <v type="int" >       69 </v>
  <v type="int" >       65 </v>
  <v type="int" >       43 </v>
  <v type="int" >       42 </v>
  <v type="int" >       30 </v>
  <v type="int" >       25 </v>
  <v type="int" >       26 </v>
  <v type="int" >       16 </v>
  <v type="int" >       28 </v>
  <v type="int" >       76 </v>
  <v type="int" >       75 </v>
  <v type="int" >       70 </v>
  <v type="int" >       29 </v>
 </varray>
 <kpoints>
  <generation param="listgenerated">
   <i name="divisions" type="int">      20 </i>
   <v>       0.00000000       0.00000000       0.00000000 </v>
   <v>       0.50000000       0.00000000       0.00000000 </v>
   <v>       0.33333333       0.33333333       0.00000000 </v>
   <v>       0.00000000       0.00000000       0.00000000 </v>
  </generation>
  <varray name="kpointlist" >
   <v>       0.00000000       0.00000000       0.00000000 </v>
   <v>       0.02631579       0.00000000       0.00000000 </v>
   <v>       0.05263158       0.00000000       0.00000000 </v>
   <v>       0.07894737       0.00000000       0.00000000 </v>
   <v>       0.10526316       0.00000000       0.00000000 </v>
   <v>       0.13157895       0.00000000       0.00000000 </v>
   <v>       0.15789474       0.00000000       0.00000000 </v>
   <v>       0.18421053       0.00000000       0.00000000 </v>
   <v>       0.21052632       0.00000000       0.00000000 </v>
   <v>       0.23684211       0.00000000       0.00000000 </v>
   <v>       0.26315789       0.00000000       0.00000000 </v>
   <v>       0.28947368       0.00000000       0.00000000 </v>
   <v>       0.31578947       0.00000000       0.00000000 </v>
   <v>       0.34210526       0.00000000       0.00000000 </v>
   <v>       0.36842105       0.00000000       0.00000000 </v>
   <v>       0.39473684       0.00000000       0.00000000 </v>
   <v>       0.42105263       0.00000000       0.00000000 </v>
   <v>       0.44736842       0.00000000       0.00000000 </v>
   <v>       0.47368421       0.00000000       0.00000000 </v>
   <v>       0.50000000       0.00000000       0.00000000 </v>
   <v>       0.50000000       0.00000000       0.00000000 </v>
   <v>       0.49122807       0.01754386       0.00000000 </v>
   <v>       0.48245614       0.03508772       0.00000000 </v>
   <v>       0.47368421       0.05263158       0.00000000 </v>
   <v>       0.46491228       0.07017544       0.00000000 </v>
   <v>       0.45614035       0.08771930       0.00000000 </v>
   <v>       0.44736842       0.10526316       0.00000000 </v>
   <v>       0.43859649       0.12280702       0.00000000 </v>
   <v>       0.42982456       0.14035088       0.00000000 </v>
   <v>       0.42105263       0.15789474       0.00000000 </v>
   <v>       0.41228070       0.17543860       0.00000000 </v>
   <v>       0.40350877       0.19298246       0.00000000 </v>
   <v>       0.39473684       0.21052632       0.00000000 </v>
   <v>       0.38596491       0.22807018       0.00000000 </v>
   <v>       0.37719298       0.24561404       0.00000000 </v>
   <v>       0.36842105       0.26315789       0.00000000 </v>
   <v>       0.35964912       0.28070175       0.00000000 </v>
   <v>       0.35087719       0.29824561       0.00000000 </v>
   <v>       0.34210526       0.31578947       0.00000000 </v>
   <v>       0.33333333       0.33333333       0.00000000 </v>
   <v>       0.33333333       0.33333333       0.00000000 </v>
   <v>       0.31578947       0.31578947       0.00000000 </v>
   <v>       0.29824561       0.29824561       0.00000000 </v>
   <v>       0.28070175       0.28070175       0.00000000 </v>
   <v>       0.26315789       0.26315789       0.00000000 </v>
   <v>       0.24561404       0.24561404       0.00000000 </v>
   <v>       0.22807018       0.22807018       0.00000000 </v>
   <v>       0.21052632       0.21052632       0.00000000 </v>
   <v>       0.19298246       0.19298246       0.00000000 </v>
   <v>       0.17543860       0.17543860       0.00000000 </v>
   <v>       0.15789474       0.15789474       0.00000000 </v>
   <v>       0.14035088       0.14035088       0.00000000 </v>
   <v>       0.12280702       0.12280702       0.00000000 </v>
   <v>       0.10526316       0.10526316       0.00000000 </v>
   <v>       0.08771930       0.08771930       0.00000000 </v>
   <v>       0.07017544       0.07017544       0.00000000 </v>
   <v>       0.05263158       0.05263158       0.00000000 </v>
   <v>       0.03508772       0.03508772       0.00000000 </v>
   <v>       0.01754386       0.01754386       0.00000000 </v>
   <v>       0.00000000       0.00000000       0.00000000 </v>
  </varray>
  <varray name="weights" >
   <v>       0.01666667 </v>
   <v>       0.01666667 </v>
   <v>       0.01666667 </v>
   <v>       0.01666667 </v>
   <v>       0.01666667 </v>
   <v>       0.01666667 </v>
   <v>       0.01666667 </v>
   <v>       0.01666667 </v>
   <v>       0.01666667 </v>
   <v>       0.01666667 </v>
   <v>       0.01666667 </v>
   <v>       0.01666667 </v>
   <v>       0.01666667 </v>
   <v>       0.01666667 </v>
   <v>       0.01666667 </v>
   <v>       0.01666667 </v>
   <v>       0.01666667 </v>
   <v>       0.01666667 </v>
   <v>       0.01666667 </v>
   <v>       0.01666667 </v>
   <v>       0.01666667 </v>
   <v>       0.01666667 </v>
   <v>       0.01666667 </v>
   <v>       0.01666667 </v>
   <v>       0.01666667 </v>
   <v>       0.01666667 </v>
   <v>       0.01666667 </v>
   <v>       0.01666667 </v>
   <v>       0.01666667 </v>
   <v>       0.01666667 </v>
   <v>       0.01666667 </v>
   <v>       0.01666667 </v>
   <v>       0.01666667 </v>
   <v>       0.01666667 </v>
   <v>       0.01666667 </v>
   <v>       0.01666667 </v>
   <v>       0.01666667 </v>
   <v>       0.01666667 </v>
   <v>       0.01666667 </v>
   <v>       0.01666667 </v>
   <v>       0.01666667 </v>
   <v>       0.01666667 </v>
   <v>       0.01666667 </v>
   <v>       0.01666667 </v>
   <v>       0.01666667 </v>
   <v>       0.01666667 </v>
   <v>       0.01666667 </v>
   <v>       0.01666667 </v>
   <v>       0.01666667 </v>
   <v>       0.01666667 </v>
   <v>       0.01666667 </v>
   <v>       0.01666667 </v>
   <v>       0.01666667 </v>
   <v>       0.01666667 </v>
   <v>       0.01666667 </v>
   <v>       0.01666667 </v>
   <v>       0.01666667 </v>
   <v>       0.01666667 </v>
   <v>       0.01666667 </v>
   <v>       0.01666667 </v>
  </varray>
 </kpoints>
 <parameters>
  <separator name="general" >
   <i type="string" name="SYSTEM">Simulation for cell shape cell volume r</i>
   <i type="logical" name="LCOMPAT"> F  </i>
  </separator>
  <separator name="electronic" >
   <i type="string" name="PREC">high</i>
   <i name="ENMAX">    500.00000000</i>
   <i name="ENAUG">    644.87300000</i>
   <i name="EDIFF">      0.00001000</i>
   <i type="int" name="IALGO">    38</i>
   <i type="int" name="IWAVPR">    10</i>
   <i type="int" name="NBANDS">   208</i>
   <i name="NELECT">    312.00000000</i>
   <i type="int" name="TURBO">     0</i>
   <i type="int" name="IRESTART">     0</i>
   <i type="int" name="NREBOOT">     0</i>
   <i type="int" name="NMIN">     0</i>
   <i name="EREF">      0.00000000</i>
   <separator name="electronic smearing" >
    <i type="int" name="ISMEAR">     0</i>
    <i name="SIGMA">      0.01000000</i>
    <i name="KSPACING">      0.50000000</i>
    <i type="logical" name="KGAMMA"> T  </i>
   </separator>
   <separator name="electronic projectors" >
    <i type="logical" name="LREAL"> T  </i>
    <v name="ROPT">     -0.00040000     -0.00040000     -0.00040000</v>
    <i type="int" name="LMAXPAW">  -100</i>
    <i type="int" name="LMAXMIX">     2</i>
    <i type="logical" name="NLSPLINE"> F  </i>
   </separator>
   <separator name="electronic startup" >
    <i type="int" name="ISTART">     1</i>
    <i type="int" name="ICHARG">    11</i>
    <i type="int" name="INIWAV">     1</i>
   </separator>
   <separator name="electronic spin" >
    <i type="int" name="ISPIN">     1</i>
    <i type="logical" name="LNONCOLLINEAR"> F  </i>
    <v name="MAGMOM">      1.00000000      1.00000000      1.00000000      1.00000000      1.00000000      1.00000000      1.00000000      1.00000000      1.00000000      1.00000000      1.00000000      1.00000000      1.00000000      1.00000000      1.00000000      1.00000000      1.00000000      1.00000000      1.00000000      1.00000000
      1.00000000      1.00000000      1.00000000      1.00000000      1.00000000      1.00000000      1.00000000      1.00000000      1.00000000      1.00000000      1.00000000      1.00000000      1.00000000      1.00000000      1.00000000      1.00000000      1.00000000      1.00000000      1.00000000      1.00000000
      1.00000000      1.00000000      1.00000000      1.00000000      1.00000000      1.00000000      1.00000000      1.00000000      1.00000000      1.00000000      1.00000000      1.00000000      1.00000000      1.00000000      1.00000000      1.00000000      1.00000000      1.00000000      1.00000000      1.00000000
      1.00000000      1.00000000      1.00000000      1.00000000      1.00000000      1.00000000      1.00000000      1.00000000      1.00000000      1.00000000      1.00000000      1.00000000      1.00000000      1.00000000      1.00000000      1.00000000      1.00000000      1.00000000      1.00000000      1.00000000
      1.00000000      1.00000000      1.00000000      1.00000000</v>
    <i name="NUPDOWN">     -1.00000000</i>
    <i type="logical" name="LSORBIT"> F  </i>
    <v name="SAXIS">      0.00000000      0.00000000      1.00000000</v>
    <i type="logical" name="LSPIRAL"> F  </i>
    <v name="QSPIRAL">      0.00000000      0.00000000      0.00000000</v>
    <i type="logical" name="LZEROZ"> F  </i>
   </separator>
   <separator name="electronic exchange-correlation" >
    <i type="logical" name="LASPH"> F  </i>
    <i type="logical" name="LMETAGGA"> F  </i>
   </separator>
   <separator name="electronic convergence" >
    <i type="int" name="NELM">   200</i>
    <i type="int" name="NELMDL">     0</i>
    <i type="int" name="NELMIN">     2</i>
    <i name="ENINI">    500.00000000</i>
    <separator name="electronic convergence detail" >
     <i type="logical" name="LDIAG"> T  </i>
     <i type="logical" name="LSUBROT"> F  </i>
     <i name="WEIMIN">      0.00000000</i>
     <i name="EBREAK">      0.00000001</i>
     <i name="DEPER">      0.30000000</i>
     <i type="int" name="NRMM">     4</i>
     <i name="TIME">      0.40000000</i>
    </separator>
   </separator>
   <separator name="electronic mixer" >
    <i name="AMIX">      0.40000000</i>
    <i name="BMIX">      1.00000000</i>
    <i name="AMIN">      0.10000000</i>
    <i name="AMIX_MAG">      1.60000000</i>
    <i name="BMIX_MAG">      1.00000000</i>
    <separator name="electronic mixer details" >
     <i type="int" name="IMIX">     4</i>
     <i type="logical" name="MIXFIRST"> F  </i>
     <i type="int" name="MAXMIX">   -45</i>
     <i name="WC">    100.00000000</i>
     <i type="int" name="INIMIX">     1</i>
     <i type="int" name="MIXPRE">     1</i>
     <i type="int" name="MREMOVE">     5</i>
    </separator>
   </separator>
   <separator name="electronic dipolcorrection" >
    <i type="logical" name="LDIPOL"> F  </i>
    <i type="logical" name="LMONO"> F  </i>
    <i type="int" name="IDIPOL">     0</i>
    <i name="EPSILON">      1.00000000</i>
    <v name="DIPOL">   -100.00000000   -100.00000000   -100.00000000</v>
    <i name="EFIELD">      0.00000000</i>
   </separator>
  </separator>
  <separator name="grids" >
   <i type="int" name="NGX">   160</i>
   <i type="int" name="NGY">   160</i>
   <i type="int" name="NGZ">   150</i>
   <i type="int" name="NGXF">   240</i>
   <i type="int" name="NGYF">   240</i>
   <i type="int" name="NGZF">   224</i>
   <i type="logical" name="ADDGRID"> F  </i>
  </separator>
  <separator name="ionic" >
   <i type="int" name="NSW">     0</i>
   <i type="int" name="IBRION">    -1</i>
   <i type="int" name="MDALGO">     0</i>
   <i type="int" name="ISIF">     2</i>
   <i name="PSTRESS">      0.00000000</i>
   <i name="EDIFFG">     -0.01000000</i>
   <i type="int" name="NFREE">     0</i>
   <i name="POTIM">      0.30000000</i>
   <i name="SMASS">     -3.00000000</i>
   <i name="SCALEE">      1.00000000</i>
  </separator>
  <separator name="ionic md" >
   <i name="TEBEG">      0.00010000</i>
   <i name="TEEND">      0.00010000</i>
   <i type="int" name="NBLOCK">     1</i>
   <i type="int" name="KBLOCK">     1</i>
   <i type="int" name="NPACO">   256</i>
   <i name="APACO">     16.00000000</i>
  </separator>
  <separator name="symmetry" >
   <i type="int" name="ISYM">     2</i>
   <i name="SYMPREC">      0.00001000</i>
  </separator>
  <separator name="dos" >
   <i type="int" name="LORBIT">     0</i>
   <v name="RWIGS">     -1.00000000     -1.00000000     -1.00000000</v>
   <i type="int" name="NEDOS">   301</i>
   <i name="EMIN">     10.00000000</i>
   <i name="EMAX">    -10.00000000</i>
   <i name="EFERMI">      0.00000000</i>
  </separator>
  <separator name="writing" >
   <i type="int" name="NWRITE">     0</i>
   <i type="logical" name="LWAVE"> F  </i>
   <i type="logical" name="LDOWNSAMPLE"> F  </i>
   <i type="logical" name="LCHARG"> F  </i>
   <i type="logical" name="LPARD"> F  </i>
   <i type="logical" name="LVTOT"> F  </i>
   <i type="logical" name="LVHAR"> F  </i>
   <i type="logical" name="LELF"> F  </i>
   <i type="logical" name="LOPTICS"> F  </i>
   <v name="STM">      0.00000000      0.00000000      0.00000000      0.00000000      0.00000000      0.00000000      0.00000000</v>
  </separator>
  <separator name="performance" >
   <i type="int" name="NPAR">    16</i>
   <i type="int" name="NSIM">     4</i>
   <i type="int" name="NBLK">    -1</i>
   <i type="logical" name="LPLANE"> T  </i>
   <i type="logical" name="LSCALAPACK"> T  </i>
   <i type="logical" name="LSCAAWARE"> F  </i>
   <i type="logical" name="LSCALU"> F  </i>
   <i type="logical" name="LASYNC"> F  </i>
   <i type="logical" name="LORBITALREAL"> F  </i>
  </separator>
  <separator name="miscellaneous" >
   <i type="int" name="IDIOT">     3</i>
   <i type="int" name="ISPECIAL">     0</i>
   <i type="logical" name="LMUSIC"> F  </i>
   <v name="POMASS">     14.00100000      1.00000000     12.01100000</v>
   <v name="DARWINR">      0.00000000      0.00000000      0.00000000</v>
   <v name="DARWINV">      1.00000000      1.00000000      1.00000000</v>
   <i type="logical" name="LCORR"> T  </i>
  </separator>
  <i type="logical" name="GGA_COMPAT"> T  </i>
  <i type="logical" name="LBERRY"> F  </i>
  <i type="int" name="ICORELEVEL">     0</i>
  <i type="logical" name="LDAU"> F  </i>
  <i type="int" name="I_CONSTRAINED_M">     0</i>
  <separator name="electronic exchange-correlation" >
   <i type="string" name="GGA">PE</i>
   <i type="int" name="VOSKOWN">     0</i>
   <i type="logical" name="LHFCALC"> F  </i>
   <i type="string" name="PRECFOCK"></i>
   <i type="logical" name="LSYMGRAD"> F  </i>
   <i type="logical" name="LHFONE"> F  </i>
   <i type="logical" name="LRHFCALC"> F  </i>
   <i type="logical" name="LTHOMAS"> F  </i>
   <i type="logical" name="LMODELHF"> F  </i>
   <i name="ENCUT4O">     -1.00000000</i>
   <i type="int" name="EXXOEP">     0</i>
   <i type="int" name="FOURORBIT">     0</i>
   <i name="AEXX">      0.00000000</i>
   <i name="HFALPHA">      0.00000000</i>
   <i name="MCALPHA">      0.00000000</i>
   <i name="ALDAX">      1.00000000</i>
   <i name="AGGAX">      1.00000000</i>
   <i name="ALDAC">      1.00000000</i>
   <i name="AGGAC">      1.00000000</i>
   <i type="int" name="NKREDX">     1</i>
   <i type="int" name="NKREDY">     1</i>
   <i type="int" name="NKREDZ">     1</i>
   <i type="logical" name="SHIFTRED"> F  </i>
   <i type="logical" name="ODDONLY"> F  </i>
   <i type="logical" name="EVENONLY"> F  </i>
   <i type="int" name="LMAXFOCK">     0</i>
   <i type="int" name="NMAXFOCKAE">     0</i>
   <i type="logical" name="LFOCKAEDFT"> F  </i>
   <i name="HFSCREEN">      0.00000000</i>
   <i name="HFSCREENC">      0.00000000</i>
   <i type="int" name="NBANDSGWLOW">     0</i>
  </separator>
  <separator name="vdW DFT" >
   <i type="logical" name="LUSE_VDW"> F  </i>
   <i name="Zab_VDW">     -0.84910000</i>
   <i name="PARAM1">      0.12340000</i>
   <i name="PARAM2">      1.00000000</i>
   <i name="PARAM3">      0.00000000</i>
  </separator>
  <separator name="model GW" >
   <i type="int" name="MODEL_GW">     0</i>
   <i name="MODEL_EPS0">     55.04941297</i>
   <i name="MODEL_ALPHA">      1.00000000</i>
  </separator>
  <separator name="linear response parameters" >
   <i type="logical" name="LEPSILON"> F  </i>
   <i type="logical" name="LRPA"> F  </i>
   <i type="logical" name="LNABLA"> F  </i>
   <i type="logical" name="LVEL"> F  </i>
   <i type="int" name="KINTER">     0</i>
   <i name="CSHIFT">      0.10000000</i>
   <i name="OMEGAMAX">     -1.00000000</i>
   <i name="DEG_THRESHOLD">      0.00200000</i>
   <i name="RTIME">     -0.10000000</i>
   <i name="WPLASMAI">      0.00000000</i>
   <v name="DFIELD">      0.00000000      0.00000000      0.00000000</v>
   <v name="WPLASMA">      0.00000000      0.00000000      0.00000000      0.00000000      0.00000000      0.00000000      0.00000000      0.00000000      0.00000000</v>
  </separator>
  <separator name="orbital magnetization" >
   <i type="logical" name="NUCIND"> F  </i>
   <v name="MAGPOS">      0.00000000      0.00000000      0.00000000</v>
   <i type="logical" name="LNICSALL"> T  </i>
   <i type="logical" name="ORBITALMAG"> F  </i>
   <i type="logical" name="LMAGBLOCH"> F  </i>
   <i type="logical" name="LCHIMAG"> F  </i>
   <i type="logical" name="LGAUGE"> T  </i>
   <i type="int" name="MAGATOM">     0</i>
   <v name="MAGDIPOL">      0.00000000      0.00000000      0.00000000</v>
   <v name="AVECCONST">      0.00000000      0.00000000      0.00000000</v>
  </separator>
  <separator name="response functions" >
   <i type="logical" name="LADDER"> F  </i>
   <i type="logical" name="LRPAFORCE"> F  </i>
   <i type="logical" name="LFXC"> F  </i>
   <i type="logical" name="LHARTREE"> T  </i>
   <i type="int" name="IBSE">     0</i>
   <v type="int" name="KPOINT">    -1     0     0     0</v>
   <i type="logical" name="LTCTE"> F  </i>
   <i type="logical" name="LTETE"> F  </i>
   <i type="logical" name="LTRIPLET"> F  </i>
   <i type="logical" name="LFXCEPS"> F  </i>
   <i type="logical" name="LFXHEG"> F  </i>
   <i type="int" name="NATURALO">     2</i>
   <i type="logical" name="L2ORDER"> F  </i>
   <i type="logical" name="LMP2LT"> F  </i>
   <i type="logical" name="LUSEW"> F  </i>
   <i name="ENCUTGW">     -2.00000000</i>
   <i name="ENCUTGWSOFT">     -2.00000000</i>
   <i name="ENCUTLF">     -1.00000000</i>
   <i type="int" name="LMAXMP2">    -1</i>
   <i name="SCISSOR">      0.00000000</i>
   <i type="int" name="NOMEGA">     0</i>
   <i type="int" name="NOMEGAR">     0</i>
   <i type="int" name="NBANDSGW">    -1</i>
   <i type="int" name="NBANDSO">    -1</i>
   <i type="int" name="NBANDSV">    -1</i>
   <i type="int" name="NELM">   200</i>
   <i type="int" name="NELMHF">     1</i>
   <i type="int" name="DIM">     3</i>
   <i type="int" name="ANTIRES">     0</i>
   <i name="OMEGAMAX">    -30.00000000</i>
   <i name="OMEGAMIN">    -30.00000000</i>
   <i name="OMEGATL">   -200.00000000</i>
   <i type="int" name="OMEGAGRID">   140</i>
   <i name="CSHIFT">     -0.10000000</i>
   <i type="logical" name="SELFENERGY"> F  </i>
   <i type="logical" name="LSPECTRAL"> F  </i>
   <i type="logical" name="LSPECTRALGW"> F  </i>
   <i type="logical" name="LSINGLES"> F  </i>
   <i type="logical" name="LFERMIGW"> F  </i>
   <i type="logical" name="ODDONLYGW"> F  </i>
   <i type="logical" name="EVENONLYGW"> F  </i>
   <i type="int" name="NKREDLFX">     1</i>
   <i type="int" name="NKREDLFY">     1</i>
   <i type="int" name="NKREDLFZ">     1</i>
   <i type="int" name="MAXMEM">  2800</i>
   <i type="int" name="TELESCOPE">     0</i>
   <i type="int" name="TAUPAR">     1</i>
   <i type="int" name="OMEGAPAR">    -1</i>
   <i name="LAMBDA">      1.00000000</i>
  </separator>
  <separator name="External order field" >
   <i name="OFIELD_KAPPA">      0.00000000</i>
   <v name="OFIELD_K">      0.00000000      0.00000000      0.00000000</v>
   <i name="OFIELD_Q6_NEAR">      0.00000000</i>
   <i name="OFIELD_Q6_FAR">      0.00000000</i>
   <i name="OFIELD_A">      0.00000000</i>
  </separator>
  <separator name="solvation model" >
   <i type="logical" name="LSOL"> F  </i>
  </separator>
 </parameters>
 <atominfo>
  <atoms>      84 </atoms>
  <types>       3 </types>
  <array name="atoms" >
   <dimension dim="1">ion</dimension>
   <field type="string">element</field>
   <field type="int">atomtype</field>
   <set>
    <rc><c>N </c><c>   1</c></rc>
    <rc><c>N </c><c>   1</c></rc>
    <rc><c>N </c><c>   1</c></rc>
    <rc><c>N </c><c>   1</c></rc>
    <rc><c>N </c><c>   1</c></rc>
    <rc><c>N </c><c>   1</c></rc>
    <rc><c>N </c><c>   1</c></rc>
    <rc><c>N </c><c>   1</c></rc>
    <rc><c>N </c><c>   1</c></rc>
    <rc><c>N </c><c>   1</c></rc>
    <rc><c>N </c><c>   1</c></rc>
    <rc><c>N </c><c>   1</c></rc>
    <rc><c>N </c><c>   1</c></rc>
    <rc><c>N </c><c>   1</c></rc>
    <rc><c>N </c><c>   1</c></rc>
    <rc><c>N </c><c>   1</c></rc>
    <rc><c>N </c><c>   1</c></rc>
    <rc><c>N </c><c>   1</c></rc>
    <rc><c>N </c><c>   1</c></rc>
    <rc><c>N </c><c>   1</c></rc>
    <rc><c>N </c><c>   1</c></rc>
    <rc><c>N </c><c>   1</c></rc>
    <rc><c>N </c><c>   1</c></rc>
    <rc><c>N </c><c>   1</c></rc>
    <rc><c>N </c><c>   1</c></rc>
    <rc><c>N </c><c>   1</c></rc>
    <rc><c>N </c><c>   1</c></rc>
    <rc><c>N </c><c>   1</c></rc>
    <rc><c>N </c><c>   1</c></rc>
    <rc><c>N </c><c>   1</c></rc>
    <rc><c>H </c><c>   2</c></rc>
    <rc><c>H </c><c>   2</c></rc>
    <rc><c>H </c><c>   2</c></rc>
    <rc><c>H </c><c>   2</c></rc>
    <rc><c>H </c><c>   2</c></rc>
    <rc><c>H </c><c>   2</c></rc>
    <rc><c>H </c><c>   2</c></rc>
    <rc><c>H </c><c>   2</c></rc>
    <rc><c>H </c><c>   2</c></rc>
    <rc><c>H </c><c>   2</c></rc>
    <rc><c>H </c><c>   2</c></rc>
    <rc><c>H </c><c>   2</c></rc>
    <rc><c>H </c><c>   2</c></rc>
    <rc><c>H </c><c>   2</c></rc>
    <rc><c>H </c><c>   2</c></rc>
    <rc><c>H </c><c>   2</c></rc>
    <rc><c>H </c><c>   2</c></rc>
    <rc><c>H </c><c>   2</c></rc>
    <rc><c>C </c><c>   3</c></rc>
    <rc><c>C </c><c>   3</c></rc>
    <rc><c>C </c><c>   3</c></rc>
    <rc><c>C </c><c>   3</c></rc>
    <rc><c>C </c><c>   3</c></rc>
    <rc><c>C </c><c>   3</c></rc>
    <rc><c>C </c><c>   3</c></rc>
    <rc><c>C </c><c>   3</c></rc>
    <rc><c>C </c><c>   3</c></rc>
    <rc><c>C </c><c>   3</c></rc>
    <rc><c>C </c><c>   3</c></rc>
    <rc><c>C </c><c>   3</c></rc>
    <rc><c>C </c><c>   3</c></rc>
    <rc><c>C </c><c>   3</c></rc>
    <rc><c>C </c><c>   3</c></rc>
    <rc><c>C </c><c>   3</c></rc>
    <rc><c>C </c><c>   3</c></rc>
    <rc><c>C </c><c>   3</c></rc>
    <rc><c>C </c><c>   3</c></rc>
    <rc><c>C </c><c>   3</c></rc>
    <rc><c>C </c><c>   3</c></rc>
    <rc><c>C </c><c>   3</c></rc>
    <rc><c>C </c><c>   3</c></rc>
    <rc><c>C </c><c>   3</c></rc>
    <rc><c>C </c><c>   3</c></rc>
    <rc><c>C </c><c>   3</c></rc>
    <rc><c>C </c><c>   3</c></rc>
    <rc><c>C </c><c>   3</c></rc>
    <rc><c>C </c><c>   3</c></rc>
    <rc><c>C </c><c>   3</c></rc>
    <rc><c>C </c><c>   3</c></rc>
    <rc><c>C </c><c>   3</c></rc>
    <rc><c>C </c><c>   3</c></rc>
    <rc><c>C </c><c>   3</c></rc>
    <rc><c>C </c><c>   3</c></rc>
    <rc><c>C </c><c>   3</c></rc>
   </set>
  </array>
  <array name="atomtypes" >
   <dimension dim="1">type</dimension>
   <field type="int">atomspertype</field>
   <field type="string">element</field>
   <field>mass</field>
   <field>valence</field>
   <field type="string">pseudopotential</field>
   <set>
    <rc><c>  30</c><c>N </c><c>     14.00100000</c><c>      5.00000000</c><c>  PAW_PBE N 08Apr2002                   </c></rc>
    <rc><c>  18</c><c>H </c><c>      1.00000000</c><c>      1.00000000</c><c>  PAW_PBE H 15Jun2001                   </c></rc>
    <rc><c>  36</c><c>C </c><c>     12.01100000</c><c>      4.00000000</c><c>  PAW_PBE C 08Apr2002                   </c></rc>
   </set>
  </array>
 </atominfo>
 <structure name="initialpos" >
  <crystal>
   <varray name="basis" >
    <v>      21.10455298       0.01615468       0.00000000 </v>
    <v>     -10.53402558      18.25083513       0.00000000 </v>
    <v>       0.00000000       0.00000000      20.00000000 </v>
   </varray>
   <i name="volume">   7706.91781596 </i>
   <varray name="rec_basis" >
    <v>       0.04736222       0.02733655       0.00000000 </v>
    <v>      -0.00004192       0.05476782       0.00000000 </v>
    <v>       0.00000000       0.00000000       0.05000000 </v>
   </varray>
  </crystal>
  <varray name="positions" >
   <v>       0.95774045       0.91554585       0.56792357 </v>
   <v>       0.07782840       0.01933975       0.56887900 </v>
   <v>       0.13519970       0.92725647       0.56714116 </v>
   <v>       0.23732195       0.82781935       0.49286328 </v>
   <v>       0.16433385       0.88683104       0.55148967 </v>
   <v>       0.00250514       0.70746222       0.51690883 </v>
   <v>       0.12916459       0.71059004       0.49019846 </v>
   <v>       0.23650454       0.72883899       0.43429595 </v>
   <v>       0.37733445       0.91713387       0.54618797 </v>
   <v>       0.97412493       0.03585759       0.56931842 </v>
   <v>       0.59804673       0.86491912       0.49252226 </v>
   <v>       0.60736337       0.75667722       0.49405321 </v>
   <v>       0.50907171       0.75770286       0.43623503 </v>
   <v>       0.28344472       0.39556102       0.49181438 </v>
   <v>       0.16618494       0.38649717       0.49241159 </v>
   <v>       0.26582967       0.48476002       0.43490955 </v>
   <v>       0.73894219       0.82928142       0.55282619 </v>
   <v>       0.80844618       0.85832487       0.56819523 </v>
   <v>       0.10667671       0.25485927       0.55153799 </v>
   <v>       0.06614514       0.18534691       0.56726501 </v>
   <v>       0.55620083       0.61599177       0.54691357 </v>
   <v>       0.07609601       0.43735603       0.54427160 </v>
   <v>       0.72118753       0.99161039       0.52025452 </v>
   <v>       0.28651723       0.27212447       0.52057348 </v>
   <v>       0.37501608       0.81897575       0.39482342 </v>
   <v>       0.44082889       0.82779682       0.39305947 </v>
   <v>       0.46135261       0.61933157       0.39534984 </v>
   <v>       0.40439754       0.55347771       0.39323509 </v>
   <v>       0.17575029       0.53301208       0.39353888 </v>
   <v>       0.16696218       0.59013476       0.39136341 </v>
   <v>       0.95580379       0.80268536       0.54422054 </v>
   <v>       0.30853583       0.23916938       0.51735911 </v>
   <v>       0.19089390       0.13013310       0.54697451 </v>
   <v>       0.94766092       0.68547992       0.51319851 </v>
   <v>       0.02828159       0.67941337       0.50253306 </v>
   <v>       0.41064654       0.94509957       0.58474423 </v>
   <v>       0.32483672       0.90762232       0.54482673 </v>
   <v>       0.08372284       0.57088969       0.54152078 </v>
   <v>       0.50334246       0.91000807       0.54390694 </v>
   <v>       0.55038582       0.58279537       0.58576278 </v>
   <v>       0.59908074       0.66859828       0.54581349 </v>
   <v>       0.42285568       0.49003074       0.54410930 </v>
   <v>       0.04802814       0.44294038       0.58262104 </v>
   <v>       0.08566798       0.39431397       0.54333597 </v>
   <v>       0.75411233       0.04647510       0.51604034 </v>
   <v>       0.66746789       0.96580666       0.50576011 </v>
   <v>       0.86335006       0.03808300       0.54557803 </v>
   <v>       0.31465959       0.32588947       0.50604247 </v>
   <v>       0.03109532       0.94707514       0.56806562 </v>
   <v>       0.06129960       0.89690090       0.56116184 </v>
   <v>       0.01470009       0.82387439       0.54601957 </v>
   <v>       0.16517170       0.78322094       0.50402568 </v>
   <v>       0.04509631       0.77932593       0.53113482 </v>
   <v>       0.12339873       0.81653666       0.53084935 </v>
   <v>       0.16835763       0.68647993       0.45618937 </v>
   <v>       0.27011382       0.79815317       0.45747392 </v>
   <v>       0.39804543       0.88402337       0.50014382 </v>
   <v>       0.35002353       0.83797675       0.44913085 </v>
   <v>       0.14196104       0.60705162       0.44789613 </v>
   <v>       0.04631481       0.06129249       0.56885980 </v>
   <v>       0.93229312       0.96241015       0.56849173 </v>
   <v>       0.53495129       0.82590846       0.45834807 </v>
   <v>       0.63466615       0.82878067       0.50586668 </v>
   <v>       0.54487405       0.72397764       0.45881751 </v>
   <v>       0.30788202       0.45884074       0.45764497 </v>
   <v>       0.21071607       0.35901737       0.50473507 </v>
   <v>       0.19624080       0.44902810       0.45713165 </v>
   <v>       0.48215417       0.85247028       0.44992826 </v>
   <v>       0.46656117       0.88683993       0.50119002 </v>
   <v>       0.38724836       0.51178666       0.44994887 </v>
   <v>       0.43676900       0.52708228       0.50151275 </v>
   <v>       0.50253309       0.59558365       0.50080867 </v>
   <v>       0.50490315       0.64400027       0.44993967 </v>
   <v>       0.10719271       0.55714360       0.49909300 </v>
   <v>       0.10986691       0.49125304       0.49840415 </v>
   <v>       0.15638779       0.48912256       0.44794846 </v>
   <v>       0.85199903       0.93232820       0.56213985 </v>
   <v>       0.82560902       0.97912754       0.54749850 </v>
   <v>       0.75062330       0.94886737       0.53339942 </v>
   <v>       0.70960965       0.87044973       0.53274263 </v>
   <v>       0.09654043       0.14166250       0.56220960 </v>
   <v>       0.16970836       0.16794349       0.54811274 </v>
   <v>       0.21443370       0.24288224       0.53344411 </v>
   <v>       0.17718829       0.28404711       0.53189233 </v>
  </varray>
 </structure>
 <calculation>
  <scstep>
   <time name="dav">  124.56  125.73</time>
   <time name="total">  124.71  125.89</time>
   <energy>
    <i name="alphaZ">     57.87657017 </i>
    <i name="ewald">  37730.33196518 </i>
    <i name="hartreedc"> -48845.38537218 </i>
    <i name="XCdc">   1155.09044097 </i>
    <i name="pawpsdc">  30951.20948162 </i>
    <i name="pawaedc"> -31018.00612446 </i>
    <i name="eentropy">     -0.00000000 </i>
    <i name="bandstr">  -4117.07517812 </i>
    <i name="atom">  13458.14440185 </i>
    <i name="e_fr_energy">   -627.81381496 </i>
    <i name="e_wo_entrp">   -627.81381496 </i>
    <i name="e_0_energy">   -627.81381496 </i>
   </energy>
  </scstep>
  <scstep>
   <time name="dav">  142.47  143.82</time>
   <time name="total">  142.48  143.82</time>
   <energy>
    <i name="e_fr_energy">   -628.68648045 </i>
    <i name="e_wo_entrp">   -628.68648045 </i>
    <i name="e_0_energy">   -628.68648045 </i>
   </energy>
  </scstep>
  <scstep>
   <time name="dav">  157.91  159.37</time>
   <time name="total">  157.91  159.38</time>
   <energy>
    <i name="e_fr_energy">   -628.70793713 </i>
    <i name="e_wo_entrp">   -628.70793713 </i>
    <i name="e_0_energy">   -628.70793713 </i>
   </energy>
  </scstep>
  <scstep>
   <time name="dav">  141.58  142.90</time>
   <time name="total">  141.59  142.91</time>
   <energy>
    <i name="e_fr_energy">   -628.70841525 </i>
    <i name="e_wo_entrp">   -628.70841525 </i>
    <i name="e_0_energy">   -628.70841525 </i>
   </energy>
  </scstep>
  <scstep>
   <time name="dav">  135.49  136.73</time>
   <time name="total">  135.51  136.75</time>
   <energy>
    <i name="e_fr_energy">   -628.70843517 </i>
    <i name="e_wo_entrp">   -628.70843517 </i>
    <i name="e_0_energy">   -628.70843517 </i>
   </energy>
  </scstep>
  <scstep>
   <time name="dav">  111.51  112.53</time>
   <time name="total">  111.52  112.54</time>
   <energy>
    <i name="alphaZ">     57.87657017 </i>
    <i name="ewald">  37730.33196518 </i>
    <i name="hartreedc"> -48845.38537218 </i>
    <i name="XCdc">   1155.09044097 </i>
    <i name="pawpsdc">  30951.20948162 </i>
    <i name="pawaedc"> -31018.00612446 </i>
    <i name="eentropy">     -0.00000000 </i>
    <i name="bandstr">  -4117.96979902 </i>
    <i name="atom">  13458.14440185 </i>
    <i name="e_fr_energy">   -628.70843586 </i>
    <i name="e_wo_entrp">   -628.70843586 </i>
    <i name="e_0_energy">   -628.70843586 </i>
   </energy>
  </scstep>
  <structure>
   <crystal>
    <varray name="basis" >
     <v>      21.10455298       0.01615468       0.00000000 </v>
     <v>     -10.53402558      18.25083513       0.00000000 </v>
     <v>       0.00000000       0.00000000      20.00000000 </v>
    </varray>
    <i name="volume">   7706.91781596 </i>
    <varray name="rec_basis" >
     <v>       0.04736222       0.02733655       0.00000000 </v>
     <v>      -0.00004192       0.05476782       0.00000000 </v>
     <v>       0.00000000       0.00000000       0.05000000 </v>
    </varray>
   </crystal>
   <varray name="positions" >
    <v>       0.95774045       0.91554585       0.56792357 </v>
    <v>       0.07782840       0.01933975       0.56887900 </v>
    <v>       0.13519970       0.92725647       0.56714116 </v>
    <v>       0.23732195       0.82781935       0.49286328 </v>
    <v>       0.16433385       0.88683104       0.55148967 </v>
    <v>       0.00250514       0.70746222       0.51690883 </v>
    <v>       0.12916459       0.71059004       0.49019846 </v>
    <v>       0.23650454       0.72883899       0.43429595 </v>
    <v>       0.37733445       0.91713387       0.54618797 </v>
    <v>       0.97412493       0.03585759       0.56931842 </v>
    <v>       0.59804673       0.86491912       0.49252226 </v>
    <v>       0.60736337       0.75667722       0.49405321 </v>
    <v>       0.50907171       0.75770286       0.43623503 </v>
    <v>       0.28344472       0.39556102       0.49181438 </v>
    <v>       0.16618494       0.38649717       0.49241159 </v>
    <v>       0.26582967       0.48476002       0.43490955 </v>
    <v>       0.73894219       0.82928142       0.55282619 </v>
    <v>       0.80844618       0.85832487       0.56819523 </v>
    <v>       0.10667671       0.25485927       0.55153799 </v>
    <v>       0.06614514       0.18534691       0.56726501 </v>
    <v>       0.55620083       0.61599177       0.54691357 </v>
    <v>       0.07609601       0.43735603       0.54427160 </v>
    <v>       0.72118753       0.99161039       0.52025452 </v>
    <v>       0.28651723       0.27212447       0.52057348 </v>
    <v>       0.37501608       0.81897575       0.39482342 </v>
    <v>       0.44082889       0.82779682       0.39305947 </v>
    <v>       0.46135261       0.61933157       0.39534984 </v>
    <v>       0.40439754       0.55347771       0.39323509 </v>
    <v>       0.17575029       0.53301208       0.39353888 </v>
    <v>       0.16696218       0.59013476       0.39136341 </v>
    <v>       0.95580379       0.80268536       0.54422054 </v>
    <v>       0.30853583       0.23916938       0.51735911 </v>
    <v>       0.19089390       0.13013310       0.54697451 </v>
    <v>       0.94766092       0.68547992       0.51319851 </v>
    <v>       0.02828159       0.67941337       0.50253306 </v>
    <v>       0.41064654       0.94509957       0.58474423 </v>
    <v>       0.32483672       0.90762232       0.54482673 </v>
    <v>       0.08372284       0.57088969       0.54152078 </v>
    <v>       0.50334246       0.91000807       0.54390694 </v>
    <v>       0.55038582       0.58279537       0.58576278 </v>
    <v>       0.59908074       0.66859828       0.54581349 </v>
    <v>       0.42285568       0.49003074       0.54410930 </v>
    <v>       0.04802814       0.44294038       0.58262104 </v>
    <v>       0.08566798       0.39431397       0.54333597 </v>
    <v>       0.75411233       0.04647510       0.51604034 </v>
    <v>       0.66746789       0.96580666       0.50576011 </v>
    <v>       0.86335006       0.03808300       0.54557803 </v>
    <v>       0.31465959       0.32588947       0.50604247 </v>
    <v>       0.03109532       0.94707514       0.56806562 </v>
    <v>       0.06129960       0.89690090       0.56116184 </v>
    <v>       0.01470009       0.82387439       0.54601957 </v>
    <v>       0.16517170       0.78322094       0.50402568 </v>
    <v>       0.04509631       0.77932593       0.53113482 </v>
    <v>       0.12339873       0.81653666       0.53084935 </v>
    <v>       0.16835763       0.68647993       0.45618937 </v>
    <v>       0.27011382       0.79815317       0.45747392 </v>
    <v>       0.39804543       0.88402337       0.50014382 </v>
    <v>       0.35002353       0.83797675       0.44913085 </v>
    <v>       0.14196104       0.60705162       0.44789613 </v>
    <v>       0.04631481       0.06129249       0.56885980 </v>
    <v>       0.93229312       0.96241015       0.56849173 </v>
    <v>       0.53495129       0.82590846       0.45834807 </v>
    <v>       0.63466615       0.82878067       0.50586668 </v>
    <v>       0.54487405       0.72397764       0.45881751 </v>
    <v>       0.30788202       0.45884074       0.45764497 </v>
    <v>       0.21071607       0.35901737       0.50473507 </v>
    <v>       0.19624080       0.44902810       0.45713165 </v>
    <v>       0.48215417       0.85247028       0.44992826 </v>
    <v>       0.46656117       0.88683993       0.50119002 </v>
    <v>       0.38724836       0.51178666       0.44994887 </v>
    <v>       0.43676900       0.52708228       0.50151275 </v>
    <v>       0.50253309       0.59558365       0.50080867 </v>
    <v>       0.50490315       0.64400027       0.44993967 </v>
    <v>       0.10719271       0.55714360       0.49909300 </v>
    <v>       0.10986691       0.49125304       0.49840415 </v>
    <v>       0.15638779       0.48912256       0.44794846 </v>
    <v>       0.85199903       0.93232820       0.56213985 </v>
    <v>       0.82560902       0.97912754       0.54749850 </v>
    <v>       0.75062330       0.94886737       0.53339942 </v>
    <v>       0.70960965       0.87044973       0.53274263 </v>
    <v>       0.09654043       0.14166250       0.56220960 </v>
    <v>       0.16970836       0.16794349       0.54811274 </v>
    <v>       0.21443370       0.24288224       0.53344411 </v>
    <v>       0.17718829       0.28404711       0.53189233 </v>
   </varray>
  </structure>
  <varray name="forces" >
   <v>      -0.00030043       0.00339588       0.00242362 </v>
   <v>      -0.00293856       0.00205319       0.00187458 </v>
   <v>       0.00029493       0.00245623       0.00148676 </v>
   <v>      -0.00353449      -0.00310334       0.00116971 </v>
   <v>       0.00148212      -0.00148248       0.00005585 </v>
   <v>      -0.00128969       0.00103416      -0.00127836 </v>
   <v>      -0.00020696      -0.00292536      -0.00273613 </v>
   <v>       0.00295865       0.00846995      -0.00217529 </v>
   <v>       0.00039129      -0.00009116       0.00021249 </v>
   <v>       0.00029460       0.00057358      -0.00696273 </v>
   <v>       0.00690876      -0.00007238       0.00258642 </v>
   <v>      -0.00200129      -0.00491481      -0.00389639 </v>
   <v>      -0.00171080       0.00323006      -0.00056658 </v>
   <v>      -0.00017874       0.00426799      -0.00185706 </v>
   <v>       0.00026266      -0.00213066      -0.00143527 </v>
   <v>       0.00248284      -0.00313376       0.00301894 </v>
   <v>       0.00145272      -0.00256177       0.00059077 </v>
   <v>       0.00133995      -0.00431227       0.00112905 </v>
   <v>       0.00009744      -0.00100825       0.00099895 </v>
   <v>       0.00171064      -0.00214397       0.00108129 </v>
   <v>      -0.00373140      -0.00350031      -0.00216387 </v>
   <v>       0.00178815      -0.00305988       0.00297092 </v>
   <v>      -0.00037311      -0.00098806       0.00416401 </v>
   <v>      -0.00453716      -0.00172435       0.00161468 </v>
   <v>       0.00373995      -0.00021731      -0.00144785 </v>
   <v>       0.00008251       0.00265075      -0.00031581 </v>
   <v>      -0.00132128       0.00484181      -0.00226628 </v>
   <v>      -0.00104449      -0.00570666      -0.00401693 </v>
   <v>       0.00088438       0.00260103       0.00067470 </v>
   <v>      -0.00058689       0.00320429      -0.00116640 </v>
   <v>       0.00254150      -0.00090906       0.00049517 </v>
   <v>       0.00068157      -0.00199721       0.00102532 </v>
   <v>       0.00390903      -0.00190981       0.00296726 </v>
   <v>      -0.00252199      -0.00046572      -0.00173332 </v>
   <v>       0.00162799       0.00090118       0.00188095 </v>
   <v>      -0.00036940       0.00212037       0.00254274 </v>
   <v>      -0.00126332      -0.00043338      -0.00146891 </v>
   <v>      -0.00209067      -0.00121724       0.00183859 </v>
   <v>       0.00043600       0.00278413       0.00331912 </v>
   <v>       0.00143174      -0.00550104       0.00126845 </v>
   <v>       0.00265631       0.00305719      -0.00259915 </v>
   <v>       0.00088861       0.00095586      -0.00221254 </v>
   <v>      -0.00210057       0.00073421      -0.00057434 </v>
   <v>       0.00082760      -0.00199949      -0.00024542 </v>
   <v>      -0.00204784       0.00418589       0.00259682 </v>
   <v>       0.00106966       0.00020206       0.00152448 </v>
   <v>      -0.00057476       0.00249690       0.00369888 </v>
   <v>      -0.00067126       0.00194053      -0.00182908 </v>
   <v>      -0.00127845      -0.00652385       0.00158149 </v>
   <v>       0.00407392      -0.00095407      -0.00061319 </v>
   <v>      -0.00053156       0.00015668       0.00081127 </v>
   <v>       0.00223259       0.00310826      -0.00168983 </v>
   <v>       0.00194847      -0.00029967      -0.00167150 </v>
   <v>      -0.00000612       0.00080738       0.00099878 </v>
   <v>      -0.00792185      -0.00497570       0.00214643 </v>
   <v>       0.00097283      -0.00374245      -0.00348009 </v>
   <v>      -0.00202969      -0.00048897      -0.00175672 </v>
   <v>       0.00244776       0.00367225       0.00158544 </v>
   <v>      -0.00064918       0.00218872      -0.00090647 </v>
   <v>       0.00464634      -0.00226229       0.00163110 </v>
   <v>       0.00111549       0.00037453       0.00109741 </v>
   <v>      -0.00315719      -0.00308280      -0.00012320 </v>
   <v>      -0.00262765       0.00586507       0.00249643 </v>
   <v>       0.00315467       0.00057597       0.00096828 </v>
   <v>      -0.00385059       0.00145475      -0.00035875 </v>
   <v>      -0.00410316       0.00056016      -0.00162383 </v>
   <v>      -0.00038217       0.00584986      -0.00544761 </v>
   <v>      -0.00083451       0.00003958      -0.00113021 </v>
   <v>       0.00175853      -0.00086321      -0.00038432 </v>
   <v>      -0.00013047       0.00058584      -0.00521721 </v>
   <v>      -0.00155298      -0.00291948      -0.00435224 </v>
   <v>       0.00182942      -0.00027904      -0.00202400 </v>
   <v>       0.00330696      -0.00084696      -0.00034919 </v>
   <v>       0.00041905       0.00010395      -0.00045509 </v>
   <v>      -0.00360564       0.00088700       0.00106679 </v>
   <v>       0.00086891      -0.00157436      -0.00091047 </v>
   <v>       0.00032095      -0.00009749       0.00165168 </v>
   <v>      -0.00025027       0.00188477       0.00331914 </v>
   <v>      -0.00018724      -0.00497442       0.00179559 </v>
   <v>      -0.00117941       0.00133508      -0.00042131 </v>
   <v>      -0.00056170       0.00092045       0.00230147 </v>
   <v>      -0.00291300       0.00094193       0.00224991 </v>
   <v>       0.00008984       0.00607093      -0.00014402 </v>
   <v>       0.00172061      -0.00414590       0.00109522 </v>
  </varray>
  <varray name="stress" >
   <v>      -0.01734784       0.00085739       0.00348648 </v>
   <v>       0.00085739      -0.01589263      -0.01065184 </v>
   <v>       0.00348648      -0.01065185      -0.25724483 </v>
  </varray>
  <energy>
   <i name="e_fr_energy">   -630.54501791 </i>
   <i name="e_wo_entrp">   -630.54501791 </i>
   <i name="e_0_energy">     -0.00000000 </i>
  </energy>
  <time name="totalsc">  920.83  929.58</time>
  <eigenvalues>
   <array>
    <dimension dim="1">band</dimension>
    <dimension dim="2">kpoint</dimension>
    <dimension dim="3">spin</dimension>
    <field>eigene</field>
    <field>occ</field>
    <set>
     <set comment="spin 1">
      <set comment="kpoint 1">
       <r>  -25.5951    1.0000 </r>
       <r>  -25.5140    1.0000 </r>
       <r>  -25.5115    1.0000 </r>
       <r>  -25.5000    1.0000 </r>
       <r>  -25.1495    1.0000 </r>
       <r>  -25.1486    1.0000 </r>
       <r>  -25.0724    1.0000 </r>
       <r>  -25.0135    1.0000 </r>
       <r>  -25.0117    1.0000 </r>
       <r>  -24.8810    1.0000 </r>
       <r>  -23.3662    1.0000 </r>
       <r>  -23.3643    1.0000 </r>
       <r>  -23.3579    1.0000 </r>
       <r>  -23.2147    1.0000 </r>
       <r>  -23.1971    1.0000 </r>
       <r>  -23.1949    1.0000 </r>
       <r>  -22.4925    1.0000 </r>
       <r>  -22.4898    1.0000 </r>
       <r>  -22.4085    1.0000 </r>
       <r>  -22.3681    1.0000 </r>
       <r>  -22.3662    1.0000 </r>
       <r>  -22.2920    1.0000 </r>
       <r>  -22.2780    1.0000 </r>
       <r>  -22.2758    1.0000 </r>
       <r>  -20.2754    1.0000 </r>
       <r>  -20.2638    1.0000 </r>
       <r>  -20.2631    1.0000 </r>
       <r>  -20.1691    1.0000 </r>
       <r>  -20.0132    1.0000 </r>
       <r>  -20.0116    1.0000 </r>
       <r>  -19.5968    1.0000 </r>
       <r>  -19.5906    1.0000 </r>
       <r>  -19.5891    1.0000 </r>
       <r>  -19.4990    1.0000 </r>
       <r>  -19.4909    1.0000 </r>
       <r>  -19.4883    1.0000 </r>
       <r>  -17.7195    1.0000 </r>
       <r>  -17.7189    1.0000 </r>
       <r>  -17.5625    1.0000 </r>
       <r>  -17.5573    1.0000 </r>
       <r>  -17.4423    1.0000 </r>
       <r>  -16.7793    1.0000 </r>
       <r>  -16.7781    1.0000 </r>
       <r>  -16.5966    1.0000 </r>
       <r>  -16.5029    1.0000 </r>
       <r>  -16.1024    1.0000 </r>
       <r>  -16.1008    1.0000 </r>
       <r>  -16.0090    1.0000 </r>
       <r>  -15.8524    1.0000 </r>
       <r>  -15.5572    1.0000 </r>
       <r>  -15.5556    1.0000 </r>
       <r>  -15.2728    1.0000 </r>
       <r>  -15.0098    1.0000 </r>
       <r>  -15.0091    1.0000 </r>
       <r>  -14.8447    1.0000 </r>
       <r>  -14.8440    1.0000 </r>
       <r>  -14.1450    1.0000 </r>
       <r>  -13.9977    1.0000 </r>
       <r>  -13.9952    1.0000 </r>
       <r>  -13.6372    1.0000 </r>
       <r>  -13.4834    1.0000 </r>
       <r>  -13.4818    1.0000 </r>
       <r>  -13.4723    1.0000 </r>
       <r>  -13.4043    1.0000 </r>
       <r>  -13.4015    1.0000 </r>
       <r>  -13.4008    1.0000 </r>
       <r>  -13.1719    1.0000 </r>
       <r>  -12.9486    1.0000 </r>
       <r>  -12.9472    1.0000 </r>
       <r>  -12.8342    1.0000 </r>
       <r>  -12.6335    1.0000 </r>
       <r>  -12.6324    1.0000 </r>
       <r>  -12.3411    1.0000 </r>
       <r>  -12.3397    1.0000 </r>
       <r>  -12.3275    1.0000 </r>
       <r>  -11.9377    1.0000 </r>
       <r>  -11.7321    1.0000 </r>
       <r>  -11.7132    1.0000 </r>
       <r>  -11.7106    1.0000 </r>
       <r>  -11.5120    1.0000 </r>
       <r>  -11.5117    1.0000 </r>
       <r>  -11.4808    1.0000 </r>
       <r>  -11.4164    1.0000 </r>
       <r>  -11.4150    1.0000 </r>
       <r>  -11.3403    1.0000 </r>
       <r>  -10.9629    1.0000 </r>
       <r>  -10.9482    1.0000 </r>
       <r>  -10.9462    1.0000 </r>
       <r>  -10.8638    1.0000 </r>
       <r>  -10.8171    1.0000 </r>
       <r>  -10.8157    1.0000 </r>
       <r>  -10.5238    1.0000 </r>
       <r>  -10.5196    1.0000 </r>
       <r>  -10.4631    1.0000 </r>
       <r>  -10.2625    1.0000 </r>
       <r>  -10.2361    1.0000 </r>
       <r>  -10.2313    1.0000 </r>
       <r>  -10.1614    1.0000 </r>
       <r>  -10.1586    1.0000 </r>
       <r>   -9.9880    1.0000 </r>
       <r>   -9.9312    1.0000 </r>
       <r>   -9.7450    1.0000 </r>
       <r>   -9.7447    1.0000 </r>
       <r>   -9.5398    1.0000 </r>
       <r>   -9.4664    1.0000 </r>
       <r>   -9.4635    1.0000 </r>
       <r>   -8.9791    1.0000 </r>
       <r>   -8.9756    1.0000 </r>
       <r>   -8.8026    1.0000 </r>
       <r>   -8.7103    1.0000 </r>
       <r>   -8.7087    1.0000 </r>
       <r>   -8.7012    1.0000 </r>
       <r>   -8.6859    1.0000 </r>
       <r>   -8.5889    1.0000 </r>
       <r>   -8.5867    1.0000 </r>
       <r>   -8.5645    1.0000 </r>
       <r>   -8.4320    1.0000 </r>
       <r>   -8.4313    1.0000 </r>
       <r>   -8.2706    1.0000 </r>
       <r>   -8.0986    1.0000 </r>
       <r>   -8.0964    1.0000 </r>
       <r>   -8.0257    1.0000 </r>
       <r>   -7.8888    1.0000 </r>
       <r>   -7.8867    1.0000 </r>
       <r>   -7.3360    1.0000 </r>
       <r>   -7.2755    1.0000 </r>
       <r>   -7.2744    1.0000 </r>
       <r>   -7.0377    1.0000 </r>
       <r>   -7.0358    1.0000 </r>
       <r>   -7.0334    1.0000 </r>
       <r>   -6.7039    1.0000 </r>
       <r>   -6.5988    1.0000 </r>
       <r>   -6.5975    1.0000 </r>
       <r>   -6.4448    1.0000 </r>
       <r>   -6.4432    1.0000 </r>
       <r>   -6.4426    1.0000 </r>
       <r>   -6.1961    1.0000 </r>
       <r>   -6.1394    1.0000 </r>
       <r>   -6.1374    1.0000 </r>
       <r>   -5.9262    1.0000 </r>
       <r>   -5.9246    1.0000 </r>
       <r>   -5.8519    1.0000 </r>
       <r>   -5.8491    1.0000 </r>
       <r>   -5.7710    1.0000 </r>
       <r>   -5.5643    1.0000 </r>
       <r>   -5.5611    1.0000 </r>
       <r>   -5.5459    1.0000 </r>
       <r>   -5.4306    1.0000 </r>
       <r>   -5.3487    1.0000 </r>
       <r>   -5.3463    1.0000 </r>
       <r>   -4.7112    1.0000 </r>
       <r>   -4.6981    1.0000 </r>
       <r>   -4.6962    1.0000 </r>
       <r>   -4.4900    1.0000 </r>
       <r>   -4.4282    1.0000 </r>
       <r>   -4.4273    1.0000 </r>
       <r>   -3.1369    0.0000 </r>
       <r>   -3.1346    0.0000 </r>
       <r>   -2.8454    0.0000 </r>
       <r>   -2.8148    0.0000 </r>
       <r>   -2.8134    0.0000 </r>
       <r>   -2.1380    0.0000 </r>
       <r>   -2.1230    0.0000 </r>
       <r>   -2.1203    0.0000 </r>
       <r>   -1.8010    0.0000 </r>
       <r>   -1.5322    0.0000 </r>
       <r>   -1.5302    0.0000 </r>
       <r>   -1.4964    0.0000 </r>
       <r>   -1.2413    0.0000 </r>
       <r>   -1.2376    0.0000 </r>
       <r>   -1.1613    0.0000 </r>
       <r>   -0.6886    0.0000 </r>
       <r>   -0.4467    0.0000 </r>
       <r>   -0.4294    0.0000 </r>
       <r>   -0.4284    0.0000 </r>
       <r>   -0.2372    0.0000 </r>
       <r>   -0.2358    0.0000 </r>
       <r>   -0.0247    0.0000 </r>
       <r>   -0.0221    0.0000 </r>
       <r>    0.0485    0.0000 </r>
       <r>    0.1259    0.0000 </r>
       <r>    0.1337    0.0000 </r>
       <r>    0.2974    0.0000 </r>
       <r>    0.4346    0.0000 </r>
       <r>    0.5762    0.0000 </r>
       <r>    0.5786    0.0000 </r>
       <r>    0.6837    0.0000 </r>
       <r>    0.8015    0.0000 </r>
       <r>    0.8042    0.0000 </r>
       <r>    0.8268    0.0000 </r>
       <r>    0.8378    0.0000 </r>
       <r>    0.9275    0.0000 </r>
       <r>    0.9309    0.0000 </r>
       <r>    0.9991    0.0000 </r>
       <r>    1.0627    0.0000 </r>
       <r>    1.0644    0.0000 </r>
       <r>    1.1466    0.0000 </r>
       <r>    1.1825    0.0000 </r>
       <r>    1.1839    0.0000 </r>
       <r>    1.2516    0.0000 </r>
       <r>    1.2780    0.0000 </r>
       <r>    1.2804    0.0000 </r>
       <r>    1.3461    0.0000 </r>
       <r>    1.3506    0.0000 </r>
       <r>    1.3835    0.0000 </r>
       <r>    1.3867    0.0000 </r>
       <r>    1.3887    0.0000 </r>
       <r>    1.4512    0.0000 </r>
      </set>
      <set comment="kpoint 2">
       <r>  -25.5950    1.0000 </r>
       <r>  -25.5148    1.0000 </r>
       <r>  -25.5115    1.0000 </r>
       <r>  -25.4992    1.0000 </r>
       <r>  -25.1496    1.0000 </r>
       <r>  -25.1486    1.0000 </r>
       <r>  -25.0725    1.0000 </r>
       <r>  -25.0135    1.0000 </r>
       <r>  -25.0115    1.0000 </r>
       <r>  -24.8811    1.0000 </r>
       <r>  -23.3662    1.0000 </r>
       <r>  -23.3643    1.0000 </r>
       <r>  -23.3580    1.0000 </r>
       <r>  -23.2147    1.0000 </r>
       <r>  -23.1971    1.0000 </r>
       <r>  -23.1949    1.0000 </r>
       <r>  -22.4925    1.0000 </r>
       <r>  -22.4899    1.0000 </r>
       <r>  -22.4086    1.0000 </r>
       <r>  -22.3683    1.0000 </r>
       <r>  -22.3662    1.0000 </r>
       <r>  -22.2919    1.0000 </r>
       <r>  -22.2780    1.0000 </r>
       <r>  -22.2758    1.0000 </r>
       <r>  -20.2756    1.0000 </r>
       <r>  -20.2639    1.0000 </r>
       <r>  -20.2627    1.0000 </r>
       <r>  -20.1691    1.0000 </r>
       <r>  -20.0132    1.0000 </r>
       <r>  -20.0116    1.0000 </r>
       <r>  -19.5969    1.0000 </r>
       <r>  -19.5906    1.0000 </r>
       <r>  -19.5891    1.0000 </r>
       <r>  -19.4990    1.0000 </r>
       <r>  -19.4909    1.0000 </r>
       <r>  -19.4883    1.0000 </r>
       <r>  -17.7196    1.0000 </r>
       <r>  -17.7189    1.0000 </r>
       <r>  -17.5624    1.0000 </r>
       <r>  -17.5578    1.0000 </r>
       <r>  -17.4415    1.0000 </r>
       <r>  -16.7806    1.0000 </r>
       <r>  -16.7792    1.0000 </r>
       <r>  -16.5957    1.0000 </r>
       <r>  -16.5014    1.0000 </r>
       <r>  -16.1024    1.0000 </r>
       <r>  -16.1010    1.0000 </r>
       <r>  -16.0090    1.0000 </r>
       <r>  -15.8525    1.0000 </r>
       <r>  -15.5570    1.0000 </r>
       <r>  -15.5556    1.0000 </r>
       <r>  -15.2736    1.0000 </r>
       <r>  -15.0103    1.0000 </r>
       <r>  -15.0089    1.0000 </r>
       <r>  -14.8443    1.0000 </r>
       <r>  -14.8437    1.0000 </r>
       <r>  -14.1457    1.0000 </r>
       <r>  -13.9967    1.0000 </r>
       <r>  -13.9951    1.0000 </r>
       <r>  -13.6373    1.0000 </r>
       <r>  -13.4844    1.0000 </r>
       <r>  -13.4821    1.0000 </r>
       <r>  -13.4718    1.0000 </r>
       <r>  -13.4043    1.0000 </r>
       <r>  -13.4015    1.0000 </r>
       <r>  -13.4007    1.0000 </r>
       <r>  -13.1713    1.0000 </r>
       <r>  -12.9487    1.0000 </r>
       <r>  -12.9472    1.0000 </r>
       <r>  -12.8341    1.0000 </r>
       <r>  -12.6337    1.0000 </r>
       <r>  -12.6327    1.0000 </r>
       <r>  -12.3442    1.0000 </r>
       <r>  -12.3399    1.0000 </r>
       <r>  -12.3239    1.0000 </r>
       <r>  -11.9377    1.0000 </r>
       <r>  -11.7329    1.0000 </r>
       <r>  -11.7124    1.0000 </r>
       <r>  -11.7105    1.0000 </r>
       <r>  -11.5122    1.0000 </r>
       <r>  -11.5118    1.0000 </r>
       <r>  -11.4807    1.0000 </r>
       <r>  -11.4161    1.0000 </r>
       <r>  -11.4149    1.0000 </r>
       <r>  -11.3403    1.0000 </r>
       <r>  -10.9629    1.0000 </r>
       <r>  -10.9481    1.0000 </r>
       <r>  -10.9462    1.0000 </r>
       <r>  -10.8639    1.0000 </r>
       <r>  -10.8169    1.0000 </r>
       <r>  -10.8156    1.0000 </r>
       <r>  -10.5241    1.0000 </r>
       <r>  -10.5201    1.0000 </r>
       <r>  -10.4623    1.0000 </r>
       <r>  -10.2634    1.0000 </r>
       <r>  -10.2359    1.0000 </r>
       <r>  -10.2306    1.0000 </r>
       <r>  -10.1615    1.0000 </r>
       <r>  -10.1585    1.0000 </r>
       <r>   -9.9880    1.0000 </r>
       <r>   -9.9311    1.0000 </r>
       <r>   -9.7453    1.0000 </r>
       <r>   -9.7447    1.0000 </r>
       <r>   -9.5397    1.0000 </r>
       <r>   -9.4665    1.0000 </r>
       <r>   -9.4636    1.0000 </r>
       <r>   -8.9791    1.0000 </r>
       <r>   -8.9754    1.0000 </r>
       <r>   -8.8025    1.0000 </r>
       <r>   -8.7103    1.0000 </r>
       <r>   -8.7088    1.0000 </r>
       <r>   -8.7014    1.0000 </r>
       <r>   -8.6859    1.0000 </r>
       <r>   -8.5888    1.0000 </r>
       <r>   -8.5867    1.0000 </r>
       <r>   -8.5645    1.0000 </r>
       <r>   -8.4319    1.0000 </r>
       <r>   -8.4313    1.0000 </r>
       <r>   -8.2706    1.0000 </r>
       <r>   -8.0999    1.0000 </r>
       <r>   -8.0966    1.0000 </r>
       <r>   -8.0245    1.0000 </r>
       <r>   -7.8888    1.0000 </r>
       <r>   -7.8867    1.0000 </r>
       <r>   -7.3362    1.0000 </r>
       <r>   -7.2753    1.0000 </r>
       <r>   -7.2744    1.0000 </r>
       <r>   -7.0382    1.0000 </r>
       <r>   -7.0354    1.0000 </r>
       <r>   -7.0333    1.0000 </r>
       <r>   -6.7044    1.0000 </r>
       <r>   -6.5984    1.0000 </r>
       <r>   -6.5973    1.0000 </r>
       <r>   -6.4451    1.0000 </r>
       <r>   -6.4432    1.0000 </r>
       <r>   -6.4424    1.0000 </r>
       <r>   -6.1962    1.0000 </r>
       <r>   -6.1393    1.0000 </r>
       <r>   -6.1374    1.0000 </r>
       <r>   -5.9262    1.0000 </r>
       <r>   -5.9246    1.0000 </r>
       <r>   -5.8520    1.0000 </r>
       <r>   -5.8491    1.0000 </r>
       <r>   -5.7709    1.0000 </r>
       <r>   -5.5643    1.0000 </r>
       <r>   -5.5611    1.0000 </r>
       <r>   -5.5459    1.0000 </r>
       <r>   -5.4306    1.0000 </r>
       <r>   -5.3487    1.0000 </r>
       <r>   -5.3463    1.0000 </r>
       <r>   -4.7113    1.0000 </r>
       <r>   -4.6980    1.0000 </r>
       <r>   -4.6962    1.0000 </r>
       <r>   -4.4900    1.0000 </r>
       <r>   -4.4282    1.0000 </r>
       <r>   -4.4273    1.0000 </r>
       <r>   -3.1370    0.0000 </r>
       <r>   -3.1347    0.0000 </r>
       <r>   -2.8464    0.0000 </r>
       <r>   -2.8145    0.0000 </r>
       <r>   -2.8122    0.0000 </r>
       <r>   -2.1382    0.0000 </r>
       <r>   -2.1235    0.0000 </r>
       <r>   -2.1209    0.0000 </r>
       <r>   -1.8001    0.0000 </r>
       <r>   -1.5322    0.0000 </r>
       <r>   -1.5303    0.0000 </r>
       <r>   -1.4962    0.0000 </r>
       <r>   -1.2413    0.0000 </r>
       <r>   -1.2376    0.0000 </r>
       <r>   -1.1610    0.0000 </r>
       <r>   -0.6899    0.0000 </r>
       <r>   -0.4465    0.0000 </r>
       <r>   -0.4294    0.0000 </r>
       <r>   -0.4277    0.0000 </r>
       <r>   -0.2375    0.0000 </r>
       <r>   -0.2362    0.0000 </r>
       <r>   -0.0250    0.0000 </r>
       <r>   -0.0221    0.0000 </r>
       <r>    0.0496    0.0000 </r>
       <r>    0.1261    0.0000 </r>
       <r>    0.1338    0.0000 </r>
       <r>    0.2979    0.0000 </r>
       <r>    0.4347    0.0000 </r>
       <r>    0.5749    0.0000 </r>
       <r>    0.5785    0.0000 </r>
       <r>    0.6840    0.0000 </r>
       <r>    0.8010    0.0000 </r>
       <r>    0.8037    0.0000 </r>
       <r>    0.8272    0.0000 </r>
       <r>    0.8376    0.0000 </r>
       <r>    0.9277    0.0000 </r>
       <r>    0.9312    0.0000 </r>
       <r>    0.9995    0.0000 </r>
       <r>    1.0621    0.0000 </r>
       <r>    1.0644    0.0000 </r>
       <r>    1.1450    0.0000 </r>
       <r>    1.1817    0.0000 </r>
       <r>    1.1838    0.0000 </r>
       <r>    1.2525    0.0000 </r>
       <r>    1.2785    0.0000 </r>
       <r>    1.2814    0.0000 </r>
       <r>    1.3460    0.0000 </r>
       <r>    1.3496    0.0000 </r>
       <r>    1.3808    0.0000 </r>
       <r>    1.3871    0.0000 </r>
       <r>    1.3941    0.0000 </r>
       <r>    1.4526    0.0000 </r>
      </set>
      <set comment="kpoint 3">
       <r>  -25.5948    1.0000 </r>
       <r>  -25.5169    1.0000 </r>
       <r>  -25.5115    1.0000 </r>
       <r>  -25.4972    1.0000 </r>
       <r>  -25.1501    1.0000 </r>
       <r>  -25.1486    1.0000 </r>
       <r>  -25.0725    1.0000 </r>
       <r>  -25.0135    1.0000 </r>
       <r>  -25.0110    1.0000 </r>
       <r>  -24.8813    1.0000 </r>
       <r>  -23.3662    1.0000 </r>
       <r>  -23.3642    1.0000 </r>
       <r>  -23.3580    1.0000 </r>
       <r>  -23.2147    1.0000 </r>
       <r>  -23.1971    1.0000 </r>
       <r>  -23.1949    1.0000 </r>
       <r>  -22.4922    1.0000 </r>
       <r>  -22.4899    1.0000 </r>
       <r>  -22.4087    1.0000 </r>
       <r>  -22.3688    1.0000 </r>
       <r>  -22.3661    1.0000 </r>
       <r>  -22.2916    1.0000 </r>
       <r>  -22.2781    1.0000 </r>
       <r>  -22.2757    1.0000 </r>
       <r>  -20.2763    1.0000 </r>
       <r>  -20.2639    1.0000 </r>
       <r>  -20.2618    1.0000 </r>
       <r>  -20.1694    1.0000 </r>
       <r>  -20.0132    1.0000 </r>
       <r>  -20.0116    1.0000 </r>
       <r>  -19.5969    1.0000 </r>
       <r>  -19.5905    1.0000 </r>
       <r>  -19.5890    1.0000 </r>
       <r>  -19.4990    1.0000 </r>
       <r>  -19.4909    1.0000 </r>
       <r>  -19.4883    1.0000 </r>
       <r>  -17.7200    1.0000 </r>
       <r>  -17.7188    1.0000 </r>
       <r>  -17.5618    1.0000 </r>
       <r>  -17.5592    1.0000 </r>
       <r>  -17.4392    1.0000 </r>
       <r>  -16.7863    1.0000 </r>
       <r>  -16.7803    1.0000 </r>
       <r>  -16.5933    1.0000 </r>
       <r>  -16.4968    1.0000 </r>
       <r>  -16.1025    1.0000 </r>
       <r>  -16.1016    1.0000 </r>
       <r>  -16.0089    1.0000 </r>
       <r>  -15.8530    1.0000 </r>
       <r>  -15.5564    1.0000 </r>
       <r>  -15.5554    1.0000 </r>
       <r>  -15.2761    1.0000 </r>
       <r>  -15.0120    1.0000 </r>
       <r>  -15.0077    1.0000 </r>
       <r>  -14.8432    1.0000 </r>
       <r>  -14.8429    1.0000 </r>
       <r>  -14.1478    1.0000 </r>
       <r>  -13.9956    1.0000 </r>
       <r>  -13.9927    1.0000 </r>
       <r>  -13.6377    1.0000 </r>
       <r>  -13.4873    1.0000 </r>
       <r>  -13.4823    1.0000 </r>
       <r>  -13.4707    1.0000 </r>
       <r>  -13.4044    1.0000 </r>
       <r>  -13.4016    1.0000 </r>
       <r>  -13.4005    1.0000 </r>
       <r>  -13.1698    1.0000 </r>
       <r>  -12.9487    1.0000 </r>
       <r>  -12.9472    1.0000 </r>
       <r>  -12.8339    1.0000 </r>
       <r>  -12.6345    1.0000 </r>
       <r>  -12.6332    1.0000 </r>
       <r>  -12.3503    1.0000 </r>
       <r>  -12.3399    1.0000 </r>
       <r>  -12.3170    1.0000 </r>
       <r>  -11.9378    1.0000 </r>
       <r>  -11.7351    1.0000 </r>
       <r>  -11.7109    1.0000 </r>
       <r>  -11.7099    1.0000 </r>
       <r>  -11.5131    1.0000 </r>
       <r>  -11.5118    1.0000 </r>
       <r>  -11.4806    1.0000 </r>
       <r>  -11.4155    1.0000 </r>
       <r>  -11.4146    1.0000 </r>
       <r>  -11.3401    1.0000 </r>
       <r>  -10.9629    1.0000 </r>
       <r>  -10.9481    1.0000 </r>
       <r>  -10.9462    1.0000 </r>
       <r>  -10.8644    1.0000 </r>
       <r>  -10.8166    1.0000 </r>
       <r>  -10.8154    1.0000 </r>
       <r>  -10.5257    1.0000 </r>
       <r>  -10.5212    1.0000 </r>
       <r>  -10.4602    1.0000 </r>
       <r>  -10.2658    1.0000 </r>
       <r>  -10.2352    1.0000 </r>
       <r>  -10.2287    1.0000 </r>
       <r>  -10.1619    1.0000 </r>
       <r>  -10.1582    1.0000 </r>
       <r>   -9.9880    1.0000 </r>
       <r>   -9.9308    1.0000 </r>
       <r>   -9.7461    1.0000 </r>
       <r>   -9.7447    1.0000 </r>
       <r>   -9.5397    1.0000 </r>
       <r>   -9.4666    1.0000 </r>
       <r>   -9.4636    1.0000 </r>
       <r>   -8.9789    1.0000 </r>
       <r>   -8.9745    1.0000 </r>
       <r>   -8.8024    1.0000 </r>
       <r>   -8.7103    1.0000 </r>
       <r>   -8.7089    1.0000 </r>
       <r>   -8.7020    1.0000 </r>
       <r>   -8.6860    1.0000 </r>
       <r>   -8.5888    1.0000 </r>
       <r>   -8.5865    1.0000 </r>
       <r>   -8.5645    1.0000 </r>
       <r>   -8.4317    1.0000 </r>
       <r>   -8.4313    1.0000 </r>
       <r>   -8.2706    1.0000 </r>
       <r>   -8.1038    1.0000 </r>
       <r>   -8.0966    1.0000 </r>
       <r>   -8.0211    1.0000 </r>
       <r>   -7.8888    1.0000 </r>
       <r>   -7.8866    1.0000 </r>
       <r>   -7.3369    1.0000 </r>
       <r>   -7.2748    1.0000 </r>
       <r>   -7.2741    1.0000 </r>
       <r>   -7.0392    1.0000 </r>
       <r>   -7.0347    1.0000 </r>
       <r>   -7.0329    1.0000 </r>
       <r>   -6.7060    1.0000 </r>
       <r>   -6.5978    1.0000 </r>
       <r>   -6.5963    1.0000 </r>
       <r>   -6.4458    1.0000 </r>
       <r>   -6.4432    1.0000 </r>
       <r>   -6.4420    1.0000 </r>
       <r>   -6.1963    1.0000 </r>
       <r>   -6.1392    1.0000 </r>
       <r>   -6.1373    1.0000 </r>
       <r>   -5.9261    1.0000 </r>
       <r>   -5.9246    1.0000 </r>
       <r>   -5.8524    1.0000 </r>
       <r>   -5.8490    1.0000 </r>
       <r>   -5.7707    1.0000 </r>
       <r>   -5.5644    1.0000 </r>
       <r>   -5.5611    1.0000 </r>
       <r>   -5.5459    1.0000 </r>
       <r>   -5.4306    1.0000 </r>
       <r>   -5.3487    1.0000 </r>
       <r>   -5.3463    1.0000 </r>
       <r>   -4.7116    1.0000 </r>
       <r>   -4.6977    1.0000 </r>
       <r>   -4.6962    1.0000 </r>
       <r>   -4.4900    1.0000 </r>
       <r>   -4.4282    1.0000 </r>
       <r>   -4.4273    1.0000 </r>
       <r>   -3.1371    0.0000 </r>
       <r>   -3.1351    0.0000 </r>
       <r>   -2.8491    0.0000 </r>
       <r>   -2.8142    0.0000 </r>
       <r>   -2.8081    0.0000 </r>
       <r>   -2.1387    0.0000 </r>
       <r>   -2.1262    0.0000 </r>
       <r>   -2.1215    0.0000 </r>
       <r>   -1.7975    0.0000 </r>
       <r>   -1.5321    0.0000 </r>
       <r>   -1.5306    0.0000 </r>
       <r>   -1.4955    0.0000 </r>
       <r>   -1.2414    0.0000 </r>
       <r>   -1.2375    0.0000 </r>
       <r>   -1.1602    0.0000 </r>
       <r>   -0.6935    0.0000 </r>
       <r>   -0.4462    0.0000 </r>
       <r>   -0.4294    0.0000 </r>
       <r>   -0.4255    0.0000 </r>
       <r>   -0.2388    0.0000 </r>
       <r>   -0.2372    0.0000 </r>
       <r>   -0.0264    0.0000 </r>
       <r>   -0.0214    0.0000 </r>
       <r>    0.0527    0.0000 </r>
       <r>    0.1266    0.0000 </r>
       <r>    0.1341    0.0000 </r>
       <r>    0.2993    0.0000 </r>
       <r>    0.4351    0.0000 </r>
       <r>    0.5712    0.0000 </r>
       <r>    0.5780    0.0000 </r>
       <r>    0.6846    0.0000 </r>
       <r>    0.7994    0.0000 </r>
       <r>    0.8024    0.0000 </r>
       <r>    0.8285    0.0000 </r>
       <r>    0.8375    0.0000 </r>
       <r>    0.9278    0.0000 </r>
       <r>    0.9322    0.0000 </r>
       <r>    1.0007    0.0000 </r>
       <r>    1.0605    0.0000 </r>
       <r>    1.0648    0.0000 </r>
       <r>    1.1408    0.0000 </r>
       <r>    1.1793    0.0000 </r>
       <r>    1.1831    0.0000 </r>
       <r>    1.2541    0.0000 </r>
       <r>    1.2800    0.0000 </r>
       <r>    1.2847    0.0000 </r>
       <r>    1.3436    0.0000 </r>
       <r>    1.3487    0.0000 </r>
       <r>    1.3801    0.0000 </r>
       <r>    1.3895    0.0000 </r>
       <r>    1.4013    0.0000 </r>
       <r>    1.4572    0.0000 </r>
      </set>
      <set comment="kpoint 4">
       <r>  -25.5945    1.0000 </r>
       <r>  -25.5195    1.0000 </r>
       <r>  -25.5115    1.0000 </r>
       <r>  -25.4947    1.0000 </r>
       <r>  -25.1508    1.0000 </r>
       <r>  -25.1486    1.0000 </r>
       <r>  -25.0726    1.0000 </r>
       <r>  -25.0135    1.0000 </r>
       <r>  -25.0100    1.0000 </r>
       <r>  -24.8817    1.0000 </r>
       <r>  -23.3662    1.0000 </r>
       <r>  -23.3642    1.0000 </r>
       <r>  -23.3580    1.0000 </r>
       <r>  -23.2147    1.0000 </r>
       <r>  -23.1971    1.0000 </r>
       <r>  -23.1949    1.0000 </r>
       <r>  -22.4918    1.0000 </r>
       <r>  -22.4900    1.0000 </r>
       <r>  -22.4088    1.0000 </r>
       <r>  -22.3698    1.0000 </r>
       <r>  -22.3659    1.0000 </r>
       <r>  -22.2912    1.0000 </r>
       <r>  -22.2781    1.0000 </r>
       <r>  -22.2756    1.0000 </r>
       <r>  -20.2772    1.0000 </r>
       <r>  -20.2639    1.0000 </r>
       <r>  -20.2605    1.0000 </r>
       <r>  -20.1698    1.0000 </r>
       <r>  -20.0131    1.0000 </r>
       <r>  -20.0116    1.0000 </r>
       <r>  -19.5970    1.0000 </r>
       <r>  -19.5905    1.0000 </r>
       <r>  -19.5890    1.0000 </r>
       <r>  -19.4989    1.0000 </r>
       <r>  -19.4909    1.0000 </r>
       <r>  -19.4884    1.0000 </r>
       <r>  -17.7205    1.0000 </r>
       <r>  -17.7186    1.0000 </r>
       <r>  -17.5618    1.0000 </r>
       <r>  -17.5604    1.0000 </r>
       <r>  -17.4355    1.0000 </r>
       <r>  -16.7955    1.0000 </r>
       <r>  -16.7818    1.0000 </r>
       <r>  -16.5898    1.0000 </r>
       <r>  -16.4894    1.0000 </r>
       <r>  -16.1030    1.0000 </r>
       <r>  -16.1021    1.0000 </r>
       <r>  -16.0088    1.0000 </r>
       <r>  -15.8538    1.0000 </r>
       <r>  -15.5564    1.0000 </r>
       <r>  -15.5542    1.0000 </r>
       <r>  -15.2800    1.0000 </r>
       <r>  -15.0148    1.0000 </r>
       <r>  -15.0059    1.0000 </r>
       <r>  -14.8416    1.0000 </r>
       <r>  -14.8414    1.0000 </r>
       <r>  -14.1511    1.0000 </r>
       <r>  -13.9957    1.0000 </r>
       <r>  -13.9873    1.0000 </r>
       <r>  -13.6384    1.0000 </r>
       <r>  -13.4916    1.0000 </r>
       <r>  -13.4825    1.0000 </r>
       <r>  -13.4695    1.0000 </r>
       <r>  -13.4044    1.0000 </r>
       <r>  -13.4018    1.0000 </r>
       <r>  -13.4002    1.0000 </r>
       <r>  -13.1674    1.0000 </r>
       <r>  -12.9489    1.0000 </r>
       <r>  -12.9472    1.0000 </r>
       <r>  -12.8334    1.0000 </r>
       <r>  -12.6362    1.0000 </r>
       <r>  -12.6335    1.0000 </r>
       <r>  -12.3568    1.0000 </r>
       <r>  -12.3398    1.0000 </r>
       <r>  -12.3095    1.0000 </r>
       <r>  -11.9380    1.0000 </r>
       <r>  -11.7380    1.0000 </r>
       <r>  -11.7109    1.0000 </r>
       <r>  -11.7072    1.0000 </r>
       <r>  -11.5147    1.0000 </r>
       <r>  -11.5116    1.0000 </r>
       <r>  -11.4804    1.0000 </r>
       <r>  -11.4153    1.0000 </r>
       <r>  -11.4133    1.0000 </r>
       <r>  -11.3397    1.0000 </r>
[...]
       <r>   -25.3594     0.0000     8.0000 </r>
       <r>   -25.2596     0.0000     8.0000 </r>
       <r>   -25.1599    14.0259     9.3987 </r>
       <r>   -25.0602    19.5245    13.9471 </r>
       <r>   -24.9605    40.0945    17.9984 </r>
       <r>   -24.8607    20.0485    19.9993 </r>
       <r>   -24.7610     0.0000    20.0000 </r>
       <r>   -24.6613     0.0000    20.0000 </r>
       <r>   -24.5616     0.0000    20.0000 </r>
       <r>   -24.4618     0.0000    20.0000 </r>
       <r>   -24.3621     0.0000    20.0000 </r>
       <r>   -24.2624     0.0000    20.0000 </r>
       <r>   -24.1627     0.0000    20.0000 </r>
       <r>   -24.0629     0.0000    20.0000 </r>
       <r>   -23.9632     0.0000    20.0000 </r>
       <r>   -23.8635     0.0000    20.0000 </r>
       <r>   -23.7638     0.0000    20.0000 </r>
       <r>   -23.6641     0.0000    20.0000 </r>
       <r>   -23.5643     0.0000    20.0000 </r>
       <r>   -23.4646     0.0000    20.0000 </r>
       <r>   -23.3649    23.5875    22.3522 </r>
       <r>   -23.2652     0.0000    26.0000 </r>
       <r>   -23.1654    60.1658    32.0000 </r>
       <r>   -23.0657     0.0000    32.0000 </r>
       <r>   -22.9660     0.0000    32.0000 </r>
       <r>   -22.8663     0.0000    32.0000 </r>
       <r>   -22.7665     0.0000    32.0000 </r>
       <r>   -22.6668     0.0000    32.0000 </r>
       <r>   -22.5671     0.0000    32.0000 </r>
       <r>   -22.4674    37.7972    35.7693 </r>
       <r>   -22.3676    43.1697    40.3050 </r>
       <r>   -22.2679    51.2840    47.1142 </r>
       <r>   -22.1682     0.0000    48.0000 </r>
       <r>   -22.0685     0.0000    48.0000 </r>
       <r>   -21.9687     0.0000    48.0000 </r>
       <r>   -21.8690     0.0000    48.0000 </r>
       <r>   -21.7693     0.0000    48.0000 </r>
       <r>   -21.6696     0.0000    48.0000 </r>
       <r>   -21.5699     0.0000    48.0000 </r>
       <r>   -21.4701     0.0000    48.0000 </r>
       <r>   -21.3704     0.0000    48.0000 </r>
       <r>   -21.2707     0.0000    48.0000 </r>
       <r>   -21.1710     0.0000    48.0000 </r>
       <r>   -21.0712     0.0000    48.0000 </r>
       <r>   -20.9715     0.0000    48.0000 </r>
       <r>   -20.8718     0.0000    48.0000 </r>
       <r>   -20.7721     0.0000    48.0000 </r>
       <r>   -20.6723     0.0000    48.0000 </r>
       <r>   -20.5726     0.0000    48.0000 </r>
       <r>   -20.4729     0.0000    48.0000 </r>
       <r>   -20.3732     0.0000    48.0000 </r>
       <r>   -20.2734    20.1428    50.0087 </r>
       <r>   -20.1737    30.6449    55.4896 </r>
       <r>   -20.0740     0.0000    56.0000 </r>
       <r>   -19.9743    40.1108    60.0000 </r>
       <r>   -19.8745     0.0000    60.0000 </r>
       <r>   -19.7748     0.0000    60.0000 </r>
       <r>   -19.6751     0.0000    60.0000 </r>
       <r>   -19.5754    59.0252    65.8862 </r>
       <r>   -19.4757    59.3137    71.9150 </r>
       <r>   -19.3759     0.0000    72.0000 </r>
       <r>   -19.2762     0.0000    72.0000 </r>
       <r>   -19.1765     0.0000    72.0000 </r>
       <r>   -19.0768     0.0000    72.0000 </r>
       <r>   -18.9770     0.0000    72.0000 </r>
       <r>   -18.8773     0.0000    72.0000 </r>
       <r>   -18.7776     0.0000    72.0000 </r>
       <r>   -18.6779     0.0000    72.0000 </r>
       <r>   -18.5781     0.0000    72.0000 </r>
       <r>   -18.4784     0.0000    72.0000 </r>
       <r>   -18.3787     0.0000    72.0000 </r>
       <r>   -18.2790     0.0000    72.0000 </r>
       <r>   -18.1792     0.0000    72.0000 </r>
       <r>   -18.0795     0.0000    72.0000 </r>
       <r>   -17.9798     0.0000    72.0000 </r>
       <r>   -17.8801     0.0000    72.0000 </r>
       <r>   -17.7803     0.0000    72.0000 </r>
       <r>   -17.6806    40.0818    75.9971 </r>
       <r>   -17.5809    14.5471    77.4507 </r>
       <r>   -17.4812    20.0523    80.0000 </r>
       <r>   -17.3815     7.0175    80.6998 </r>
       <r>   -17.2817    11.3644    82.0000 </r>
       <r>   -17.1820     0.0000    82.0000 </r>
       <r>   -17.0823     0.0000    82.0000 </r>
       <r>   -16.9826     4.4703    82.4458 </r>
       <r>   -16.8828     4.0108    83.4000 </r>
       <r>   -16.7831    21.5672    85.6508 </r>
       <r>   -16.6834     0.0000    86.0000 </r>
       <r>   -16.5837     3.0941    86.3086 </r>
       <r>   -16.4839    16.2228    88.2512 </r>
       <r>   -16.3842     3.0840    88.6742 </r>
       <r>   -16.2845     6.7228    89.4038 </r>
       <r>   -16.1848     4.0159    90.0005 </r>
       <r>   -16.0850    38.7859    93.9680 </r>
       <r>   -15.9853    20.0530    95.9998 </r>
       <r>   -15.8856     0.4159    96.0415 </r>
       <r>   -15.7859     7.0176    98.0000 </r>
       <r>   -15.6861     0.0000    98.0000 </r>
       <r>   -15.5864     0.0246    98.0025 </r>
       <r>   -15.4867    34.1810   101.8095 </r>
       <r>   -15.3870     3.9212   102.3910 </r>
       <r>   -15.2873     6.4244   103.7074 </r>
       <r>   -15.1875     0.0000   104.0000 </r>
       <r>   -15.0878     7.7795   104.7758 </r>
       <r>   -14.9881    14.2103   106.5839 </r>
       <r>   -14.8884     9.6825   108.1324 </r>
       <r>   -14.7886    28.2893   111.1546 </r>
       <r>   -14.6889     5.6814   112.0000 </r>
       <r>   -14.5892     0.0000   112.0000 </r>
       <r>   -14.4895     0.0000   112.0000 </r>
       <r>   -14.3897     0.0000   112.0000 </r>
       <r>   -14.2900     0.0000   112.0000 </r>
       <r>   -14.1903    12.6533   113.2618 </r>
       <r>   -14.0906     5.0123   114.0000 </r>
       <r>   -13.9908    19.3253   115.9272 </r>
       <r>   -13.8911     4.2723   116.7595 </r>
       <r>   -13.7914     8.4939   117.7137 </r>
       <r>   -13.6917    10.5456   118.9851 </r>
       <r>   -13.5919     8.4168   120.0061 </r>
       <r>   -13.4922    15.0738   122.1037 </r>
       <r>   -13.3925    68.9841   130.8800 </r>
       <r>   -13.2928     0.0000   132.0000 </r>
       <r>   -13.1931     0.0020   132.0002 </r>
       <r>   -13.0933    19.2044   133.9153 </r>
       <r>   -12.9936     0.0000   134.0000 </r>
       <r>   -12.8939    40.1108   138.0000 </r>
       <r>   -12.7942    19.9884   139.9933 </r>
       <r>   -12.6944     8.3533   140.8330 </r>
       <r>   -12.5947    27.7426   144.0000 </r>
       <r>   -12.4950     0.0000   144.0000 </r>
       <r>   -12.3953    12.5312   145.2497 </r>
       <r>   -12.2955    27.7290   148.3320 </r>
       <r>   -12.1958    15.0409   150.0000 </r>
       <r>   -12.0961     0.0000   150.0000 </r>
       <r>   -11.9964     0.0000   150.0000 </r>
       <r>   -11.8966    20.0554   152.0000 </r>
       <r>   -11.7969     0.0146   152.0015 </r>
       <r>   -11.6972    43.8445   156.3738 </r>
       <r>   -11.5975    12.0314   158.0000 </r>
       <r>   -11.4977    38.4340   161.8328 </r>
       <r>   -11.3980    25.5772   166.5507 </r>
       <r>   -11.2983    29.0699   170.0000 </r>
       <r>   -11.1986     0.0000   170.0000 </r>
       <r>   -11.0989     0.0000   170.0000 </r>
       <r>   -10.9991     0.0000   170.0000 </r>
       <r>   -10.8994    60.2427   176.0076 </r>
       <r>   -10.7997    38.6842   180.9248 </r>
       <r>   -10.7000     0.0000   182.0000 </r>
       <r>   -10.6002     1.4046   182.1401 </r>
       <r>   -10.5005    28.7325   185.9987 </r>
       <r>   -10.4008    19.9500   187.9895 </r>
       <r>   -10.3011    12.6865   189.2651 </r>
       <r>   -10.2013    29.0983   192.5351 </r>
       <r>   -10.1016    31.3746   197.9958 </r>
       <r>   -10.0019    12.8031   199.2768 </r>
       <r>    -9.9022     7.8597   200.7838 </r>
       <r>    -9.8024    18.6649   202.8948 </r>
       <r>    -9.7027    28.0767   206.0000 </r>
       <r>    -9.6030     0.0000   206.0000 </r>
       <r>    -9.5033    20.0559   208.0001 </r>
       <r>    -9.4035    40.1099   212.0000 </r>
       <r>    -9.3038     0.0000   212.0000 </r>
       <r>    -9.2041     0.0000   212.0000 </r>
       <r>    -9.1044     0.0000   212.0000 </r>
       <r>    -9.0047     0.0014   212.0001 </r>
       <r>    -8.9049    40.0570   215.9948 </r>
       <r>    -8.8052     2.1365   216.2131 </r>
       <r>    -8.7055    48.9505   222.4488 </r>
       <r>    -8.6058     0.3968   226.0396 </r>
       <r>    -8.5060    37.0985   232.0000 </r>
       <r>    -8.4063    39.0584   235.8951 </r>
       <r>    -8.3066     0.0000   236.0000 </r>
       <r>    -8.2069    28.4002   238.8322 </r>
       <r>    -8.1071     6.6040   239.8586 </r>
       <r>    -8.0074     8.7724   242.3090 </r>
       <r>    -7.9077    15.5852   244.0543 </r>
       <r>    -7.8080    20.0487   248.0000 </r>
       <r>    -7.7082     0.0000   248.0000 </r>
       <r>    -7.6085     0.0000   248.0000 </r>
       <r>    -7.5088     0.0000   248.0000 </r>
       <r>    -7.4091     0.0000   248.0000 </r>
       <r>    -7.3093    20.0553   250.0000 </r>
       <r>    -7.2096    40.1106   254.0000 </r>
       <r>    -7.1099     0.0000   254.0000 </r>
       <r>    -7.0102    57.8817   259.7722 </r>
       <r>    -6.9105     0.0000   260.0000 </r>
       <r>    -6.8107     0.0000   260.0000 </r>
       <r>    -6.7110    17.5722   261.7524 </r>
       <r>    -6.6113     0.3274   262.0327 </r>
       <r>    -6.5116    17.3696   265.9989 </r>
       <r>    -6.4118    60.1652   271.9999 </r>
       <r>    -6.3121     0.0000   272.0000 </r>
       <r>    -6.2124     0.9316   272.0929 </r>
       <r>    -6.1127    39.9866   277.9876 </r>
       <r>    -6.0129     0.0000   278.0000 </r>
       <r>    -5.9132    37.5039   281.7400 </r>
       <r>    -5.8135    40.1108   286.0000 </r>
       <r>    -5.7138    20.0554   288.0000 </r>
       <r>    -5.6140     0.0000   288.0000 </r>
       <r>    -5.5143    60.1659   294.0000 </r>
       <r>    -5.4146    19.8172   295.9762 </r>
       <r>    -5.3149    40.1107   300.0000 </r>
       <r>    -5.2151     0.0000   300.0000 </r>
       <r>    -5.1154     0.0000   300.0000 </r>
       <r>    -5.0157     0.0000   300.0000 </r>
       <r>    -4.9160     0.0000   300.0000 </r>
       <r>    -4.8163     0.0000   300.0000 </r>
       <r>    -4.7165    11.3626   301.1331 </r>
       <r>    -4.6168    29.7171   306.0000 </r>
       <r>    -4.5171     0.0013   306.0001 </r>
       <r>    -4.4174    57.2918   311.7135 </r>
       <r>    -4.3176     0.0000   312.0000 </r>
       <r>    -4.2179     0.0000   312.0000 </r>
       <r>    -4.1182     0.0000   312.0000 </r>
       <r>    -4.0185     0.0000   312.0000 </r>
       <r>    -3.9187     0.0000   312.0000 </r>
       <r>    -3.8190     0.0000   312.0000 </r>
       <r>    -3.7193     0.0000   312.0000 </r>
       <r>    -3.6196     0.0000   312.0000 </r>
       <r>    -3.5198     0.0000   312.0000 </r>
       <r>    -3.4201     0.0000   312.0000 </r>
       <r>    -3.3204     0.0000   312.0000 </r>
       <r>    -3.2207     0.0000   312.0000 </r>
       <r>    -3.1209    39.8543   315.9744 </r>
       <r>    -3.0212     0.0000   316.0000 </r>
       <r>    -2.9215     0.0000   316.0000 </r>
       <r>    -2.8218    21.4491   318.1390 </r>
       <r>    -2.7221     5.7043   320.8022 </r>
       <r>    -2.6223    10.3612   322.0000 </r>
       <r>    -2.5226     0.0000   322.0000 </r>
       <r>    -2.4229     0.0000   322.0000 </r>
       <r>    -2.3232     0.0001   322.0000 </r>
       <r>    -2.2234    12.7405   323.2705 </r>
       <r>    -2.1237    33.7182   326.7292 </r>
       <r>    -2.0240     0.0000   328.0000 </r>
       <r>    -1.9243     0.0000   328.0000 </r>
       <r>    -1.8245     0.0005   328.0001 </r>
       <r>    -1.7248     8.4797   328.8457 </r>
       <r>    -1.6251     5.3448   330.0000 </r>
       <r>    -1.5254    30.0023   332.9919 </r>
       <r>    -1.4256    20.0554   336.0000 </r>
       <r>    -1.3259     0.0000   336.0000 </r>
       <r>    -1.2262    38.0438   339.7939 </r>
       <r>    -1.1265     7.2179   340.7198 </r>
       <r>    -1.0267    10.6959   342.0000 </r>
       <r>    -0.9270     0.0000   342.0000 </r>
       <r>    -0.8273    11.2317   343.1201 </r>
       <r>    -0.7276     3.9658   343.5955 </r>
       <r>    -0.6279     3.0076   344.0000 </r>
       <r>    -0.5281     0.0000   344.0000 </r>
       <r>    -0.4284    23.2666   346.3202 </r>
       <r>    -0.3287    33.3411   350.5584 </r>
       <r>    -0.2290    28.4405   353.9362 </r>
       <r>    -0.1292     0.0000   354.0000 </r>
       <r>    -0.0295    14.5023   355.4462 </r>
       <r>     0.0702    19.5171   358.3465 </r>
       <r>     0.1699    51.2130   363.6738 </r>
       <r>     0.2697     0.0001   364.0000 </r>
       <r>     0.3694     8.8540   364.8830 </r>
       <r>     0.4691    33.9850   368.6893 </r>
       <r>     0.5688    15.3621   370.6320 </r>
       <r>     0.6686    15.6712   373.5628 </r>
       <r>     0.7683    21.3614   376.6303 </r>
       <r>     0.8680    35.4638   380.7034 </r>
       <r>     0.9677    37.3296   385.7226 </r>
       <r>     1.0674    43.5689   390.7451 </r>
       <r>     1.1672    40.6389   396.1194 </r>
       <r>     1.2669    27.7470   400.3337 </r>
       <r>     1.3666    53.7410   406.5261 </r>
       <r>     1.4663    49.4154   412.3953 </r>
       <r>     1.5661    19.8326   415.6781 </r>
       <r>     1.6658     1.3370   416.0000 </r>
       <r>     1.7655     0.0000   416.0000 </r>
       <r>     1.8652     0.0000   416.0000 </r>
       <r>     1.9650     0.0000   416.0000 </r>
       <r>     2.0647     0.0000   416.0000 </r>
       <r>     2.1644     0.0000   416.0000 </r>
       <r>     2.2641     0.0000   416.0000 </r>
       <r>     2.3639     0.0000   416.0000 </r>
       <r>     2.4636     0.0000   416.0000 </r>
       <r>     2.5633     0.0000   416.0000 </r>
       <r>     2.6630     0.0000   416.0000 </r>
       <r>     2.7628     0.0000   416.0000 </r>
       <r>     2.8625     0.0000   416.0000 </r>
       <r>     2.9622     0.0000   416.0000 </r>
      </set>
     </set>
    </array>
   </total>
  </dos>
 </calculation>
 <structure name="finalpos" >
  <crystal>
   <varray name="basis" >
    <v>      21.10455298       0.01615468       0.00000000 </v>
    <v>     -10.53402558      18.25083513       0.00000000 </v>
    <v>       0.00000000       0.00000000      20.00000000 </v>
   </varray>
   <i name="volume">   7706.91781596 </i>
   <varray name="rec_basis" >
    <v>       0.04736222       0.02733655       0.00000000 </v>
    <v>      -0.00004192       0.05476782       0.00000000 </v>
    <v>       0.00000000       0.00000000       0.05000000 </v>
   </varray>
  </crystal>
  <varray name="positions" >
   <v>       0.95774045       0.91554585       0.56792357 </v>
   <v>       0.07782840       0.01933975       0.56887900 </v>
   <v>       0.13519970       0.92725647       0.56714116 </v>
   <v>       0.23732195       0.82781935       0.49286328 </v>
   <v>       0.16433385       0.88683104       0.55148967 </v>
   <v>       0.00250514       0.70746222       0.51690883 </v>
   <v>       0.12916459       0.71059004       0.49019846 </v>
   <v>       0.23650454       0.72883899       0.43429595 </v>
   <v>       0.37733445       0.91713387       0.54618797 </v>
   <v>       0.97412493       0.03585759       0.56931842 </v>
   <v>       0.59804673       0.86491912       0.49252226 </v>
   <v>       0.60736337       0.75667722       0.49405321 </v>
   <v>       0.50907171       0.75770286       0.43623503 </v>
   <v>       0.28344472       0.39556102       0.49181438 </v>
   <v>       0.16618494       0.38649717       0.49241159 </v>
   <v>       0.26582967       0.48476002       0.43490955 </v>
   <v>       0.73894219       0.82928142       0.55282619 </v>
   <v>       0.80844618       0.85832487       0.56819523 </v>
   <v>       0.10667671       0.25485927       0.55153799 </v>
   <v>       0.06614514       0.18534691       0.56726501 </v>
   <v>       0.55620083       0.61599177       0.54691357 </v>
   <v>       0.07609601       0.43735603       0.54427160 </v>
   <v>       0.72118753       0.99161039       0.52025452 </v>
   <v>       0.28651723       0.27212447       0.52057348 </v>
   <v>       0.37501608       0.81897575       0.39482342 </v>
   <v>       0.44082889       0.82779682       0.39305947 </v>
   <v>       0.46135261       0.61933157       0.39534984 </v>
   <v>       0.40439754       0.55347771       0.39323509 </v>
   <v>       0.17575029       0.53301208       0.39353888 </v>
   <v>       0.16696218       0.59013476       0.39136341 </v>
   <v>       0.95580379       0.80268536       0.54422054 </v>
   <v>       0.30853583       0.23916938       0.51735911 </v>
   <v>       0.19089390       0.13013310       0.54697451 </v>
   <v>       0.94766092       0.68547992       0.51319851 </v>
   <v>       0.02828159       0.67941337       0.50253306 </v>
   <v>       0.41064654       0.94509957       0.58474423 </v>
   <v>       0.32483672       0.90762232       0.54482673 </v>
   <v>       0.08372284       0.57088969       0.54152078 </v>
   <v>       0.50334246       0.91000807       0.54390694 </v>
   <v>       0.55038582       0.58279537       0.58576278 </v>
   <v>       0.59908074       0.66859828       0.54581349 </v>
   <v>       0.42285568       0.49003074       0.54410930 </v>
   <v>       0.04802814       0.44294038       0.58262104 </v>
   <v>       0.08566798       0.39431397       0.54333597 </v>
   <v>       0.75411233       0.04647510       0.51604034 </v>
   <v>       0.66746789       0.96580666       0.50576011 </v>
   <v>       0.86335006       0.03808300       0.54557803 </v>
   <v>       0.31465959       0.32588947       0.50604247 </v>
   <v>       0.03109532       0.94707514       0.56806562 </v>
   <v>       0.06129960       0.89690090       0.56116184 </v>
   <v>       0.01470009       0.82387439       0.54601957 </v>
   <v>       0.16517170       0.78322094       0.50402568 </v>
   <v>       0.04509631       0.77932593       0.53113482 </v>
   <v>       0.12339873       0.81653666       0.53084935 </v>
   <v>       0.16835763       0.68647993       0.45618937 </v>
   <v>       0.27011382       0.79815317       0.45747392 </v>
   <v>       0.39804543       0.88402337       0.50014382 </v>
   <v>       0.35002353       0.83797675       0.44913085 </v>
   <v>       0.14196104       0.60705162       0.44789613 </v>
   <v>       0.04631481       0.06129249       0.56885980 </v>
   <v>       0.93229312       0.96241015       0.56849173 </v>
   <v>       0.53495129       0.82590846       0.45834807 </v>
   <v>       0.63466615       0.82878067       0.50586668 </v>
   <v>       0.54487405       0.72397764       0.45881751 </v>
   <v>       0.30788202       0.45884074       0.45764497 </v>
   <v>       0.21071607       0.35901737       0.50473507 </v>
   <v>       0.19624080       0.44902810       0.45713165 </v>
   <v>       0.48215417       0.85247028       0.44992826 </v>
   <v>       0.46656117       0.88683993       0.50119002 </v>
   <v>       0.38724836       0.51178666       0.44994887 </v>
   <v>       0.43676900       0.52708228       0.50151275 </v>
   <v>       0.50253309       0.59558365       0.50080867 </v>
   <v>       0.50490315       0.64400027       0.44993967 </v>
   <v>       0.10719271       0.55714360       0.49909300 </v>
   <v>       0.10986691       0.49125304       0.49840415 </v>
   <v>       0.15638779       0.48912256       0.44794846 </v>
   <v>       0.85199903       0.93232820       0.56213985 </v>
   <v>       0.82560902       0.97912754       0.54749850 </v>
   <v>       0.75062330       0.94886737       0.53339942 </v>
   <v>       0.70960965       0.87044973       0.53274263 </v>
   <v>       0.09654043       0.14166250       0.56220960 </v>
   <v>       0.16970836       0.16794349       0.54811274 </v>
   <v>       0.21443370       0.24288224       0.53344411 </v>
   <v>       0.17718829       0.28404711       0.53189233 </v>
  </varray>
 </structure>
</modeling>
