<?xml version="1.0" encoding="ISO-8859-1"?>
<modeling>
 <generator>
  <i name="program" type="string">vasp </i>
  <i name="version" type="string">5.4.4.18Apr17-6-g9f103f2a35  </i>
  <i name="subversion" type="string">(build Jun 07 2020 16:50:00) complex            parallel </i>
  <i name="platform" type="string">LinuxIFC </i>
  <i name="date" type="string">2023 02 15 </i>
  <i name="time" type="string">01:58:52 </i>
 </generator>
 <incar>
  <i type="string" name="SYSTEM">Simulation for cell shape cell volume r</i>
  <i type="int" name="ISTART">     1</i>
  <i type="string" name="PREC">high</i>
  <i type="string" name="ALGO">48</i>
  <i type="int" name="ICHARG">    11</i>
  <i type="int" name="NELM">   200</i>
  <i type="int" name="IBRION">    -1</i>
  <i name="EDIFF">      0.00001000</i>
  <i name="EDIFFG">     -0.01000000</i>
  <i type="int" name="NSW">     0</i>
  <i type="int" name="ISIF">     2</i>
  <i name="ENCUT">    500.00000000</i>
  <i name="POTIM">      0.30000000</i>
  <i type="string" name="LREAL">A</i>
  <i type="int" name="ISMEAR">     0</i>
  <i name="SIGMA">      0.01000000</i>
  <i type="int" name="NWRITE">     0</i>
  <i type="logical" name="LWAVE"> F  </i>
  <i type="logical" name="LCHARG"> F  </i>
  <v type="int" name="KPOINT_BSE">    -1     0     0     0</v>
  <i type="int" name="NELM">   200</i>
  <i type="string" name="GGA">PE</i>
 </incar>
 <structure name="primitive_cell" >
  <crystal>
   <varray name="basis" >
    <v>      14.68771148       0.00205235       0.00000000 </v>
    <v>      -7.34207832      12.71576400       0.00000000 </v>
    <v>       0.00000000       0.00000000      20.00000000 </v>
   </varray>
   <i name="volume">   3735.61082671 </i>
   <varray name="rec_basis" >
    <v>       0.06807863       0.03930858       0.00000000 </v>
    <v>      -0.00001099       0.07863620       0.00000000 </v>
    <v>       0.00000000       0.00000000       0.05000000 </v>
   </varray>
  </crystal>
  <varray name="positions" >
   <v>       0.08261182      -0.45443005       0.45280821 </v>
   <v>      -0.02262154       0.49292788       0.45360865 </v>
   <v>       0.13174399      -0.42981556      -0.48787519 </v>
   <v>      -0.06262171       0.47288457       0.40522747 </v>
   <v>      -0.07988537       0.46433430      -0.48656527 </v>
   <v>       0.07495942      -0.45816572      -0.42698647 </v>
   <v>       0.24895825      -0.37121112      -0.48829391 </v>
   <v>      -0.03060082       0.48903114      -0.42708749 </v>
   <v>       0.30434733      -0.42585378      -0.48813742 </v>
   <v>       0.30437853      -0.26117149      -0.48819907 </v>
   <v>       0.26140204       0.48829953      -0.48849244 </v>
   <v>       0.26147925      -0.21823100      -0.48856529 </v>
   <v>      -0.19704883       0.40578688      -0.48670133 </v>
   <v>       0.12911499      -0.43099225      -0.36021288 </v>
   <v>       0.18013485      -0.46549721      -0.35457386 </v>
   <v>       0.18013501      -0.34544875      -0.35463057 </v>
   <v>      -0.20957874       0.25279341      -0.48639410 </v>
   <v>      -0.20949160      -0.45370296      -0.48627466 </v>
   <v>       0.07021171      -0.46040304      -0.32026414 </v>
   <v>       0.41435463      -0.37126572      -0.48828201 </v>
   <v>       0.41438781      -0.20576372      -0.48835673 </v>
   <v>      -0.25245126       0.29573535      -0.48685887 </v>
   <v>      -0.25240441       0.46047730      -0.48677305 </v>
   <v>       0.46895039      -0.26122894      -0.48822074 </v>
   <v>       0.47304897      -0.42982234      -0.48783236 </v>
   <v>       0.47307705      -0.08849958      -0.48795764 </v>
   <v>      -0.36247084       0.24037399      -0.48676578 </v>
   <v>      -0.36242589       0.40584790      -0.48664112 </v>
   <v>       0.38882859      -0.13687328      -0.35472100 </v>
   <v>       0.38899443      -0.46544035      -0.35461375 </v>
   <v>       0.49755397      -0.45449700       0.45285928 </v>
   <v>       0.49776036      -0.03936611       0.45271446 </v>
   <v>      -0.44522336      -0.21834093      -0.48863125 </v>
   <v>      -0.41709354       0.29579413      -0.48680629 </v>
   <v>      -0.49853089      -0.03168714      -0.42707009 </v>
   <v>      -0.49839281      -0.45804390      -0.42693561 </v>
   <v>       0.47434482      -0.08584467      -0.36029570 </v>
   <v>       0.47451521      -0.43091833      -0.36017973 </v>
   <v>      -0.49114975      -0.13686893      -0.35466471 </v>
   <v>      -0.49100181      -0.34538091      -0.35458068 </v>
   <v>      -0.42104349       0.12318714      -0.48665774 </v>
   <v>      -0.42100233       0.46445232      -0.48648430 </v>
   <v>      -0.42958925       0.10591504       0.40512876 </v>
   <v>      -0.42990125       0.47276131       0.40531615 </v>
   <v>      -0.44979133       0.49291712       0.45368296 </v>
   <v>      -0.44962460       0.06590120       0.45351419 </v>
   <v>       0.49711402       0.25290775      -0.48632090 </v>
   <v>      -0.49625340      -0.02694075      -0.32033921 </v>
   <v>      -0.49605375      -0.46037136      -0.32020972 </v>
   <v>      -0.44567602       0.07389989      -0.42717901 </v>
   <v>      -0.44549183       0.48926075      -0.42701408 </v>
  </varray>
 </structure>
 <varray name="primitive_index" >
  <v type="int" >        1 </v>
  <v type="int" >       51 </v>
  <v type="int" >       27 </v>
  <v type="int" >       24 </v>
  <v type="int" >       50 </v>
  <v type="int" >       26 </v>
  <v type="int" >       25 </v>
  <v type="int" >        6 </v>
  <v type="int" >       33 </v>
  <v type="int" >       29 </v>
  <v type="int" >        7 </v>
  <v type="int" >        8 </v>
  <v type="int" >       40 </v>
  <v type="int" >       28 </v>
  <v type="int" >       11 </v>
  <v type="int" >       10 </v>
  <v type="int" >       21 </v>
  <v type="int" >       20 </v>
  <v type="int" >        9 </v>
  <v type="int" >       32 </v>
  <v type="int" >       30 </v>
  <v type="int" >       41 </v>
  <v type="int" >       45 </v>
  <v type="int" >       31 </v>
  <v type="int" >       34 </v>
  <v type="int" >       36 </v>
  <v type="int" >       42 </v>
  <v type="int" >       44 </v>
  <v type="int" >       13 </v>
  <v type="int" >       12 </v>
  <v type="int" >        2 </v>
  <v type="int" >        3 </v>
  <v type="int" >       19 </v>
  <v type="int" >       43 </v>
  <v type="int" >       39 </v>
  <v type="int" >       38 </v>
  <v type="int" >       37 </v>
  <v type="int" >       35 </v>
  <v type="int" >       18 </v>
  <v type="int" >       16 </v>
  <v type="int" >       48 </v>
  <v type="int" >       46 </v>
  <v type="int" >       23 </v>
  <v type="int" >       22 </v>
  <v type="int" >       47 </v>
  <v type="int" >       49 </v>
  <v type="int" >       14 </v>
  <v type="int" >       17 </v>
  <v type="int" >       15 </v>
  <v type="int" >        5 </v>
  <v type="int" >        4 </v>
 </varray>
 <kpoints>
  <generation param="listgenerated">
   <i name="divisions" type="int">      20 </i>
   <v>       0.00000000       0.00000000       0.00000000 </v>
   <v>       0.50000000       0.00000000       0.00000000 </v>
   <v>       0.33333333       0.33333333       0.00000000 </v>
   <v>       0.00000000       0.00000000       0.00000000 </v>
  </generation>
  <varray name="kpointlist" >
   <v>       0.00000000       0.00000000       0.00000000 </v>
   <v>       0.02631579       0.00000000       0.00000000 </v>
   <v>       0.05263158       0.00000000       0.00000000 </v>
   <v>       0.07894737       0.00000000       0.00000000 </v>
   <v>       0.10526316       0.00000000       0.00000000 </v>
   <v>       0.13157895       0.00000000       0.00000000 </v>
   <v>       0.15789474       0.00000000       0.00000000 </v>
   <v>       0.18421053       0.00000000       0.00000000 </v>
   <v>       0.21052632       0.00000000       0.00000000 </v>
   <v>       0.23684211       0.00000000       0.00000000 </v>
   <v>       0.26315789       0.00000000       0.00000000 </v>
   <v>       0.28947368       0.00000000       0.00000000 </v>
   <v>       0.31578947       0.00000000       0.00000000 </v>
   <v>       0.34210526       0.00000000       0.00000000 </v>
   <v>       0.36842105       0.00000000       0.00000000 </v>
   <v>       0.39473684       0.00000000       0.00000000 </v>
   <v>       0.42105263       0.00000000       0.00000000 </v>
   <v>       0.44736842       0.00000000       0.00000000 </v>
   <v>       0.47368421       0.00000000       0.00000000 </v>
   <v>       0.50000000       0.00000000       0.00000000 </v>
   <v>       0.50000000       0.00000000       0.00000000 </v>
   <v>       0.49122807       0.01754386       0.00000000 </v>
   <v>       0.48245614       0.03508772       0.00000000 </v>
   <v>       0.47368421       0.05263158       0.00000000 </v>
   <v>       0.46491228       0.07017544       0.00000000 </v>
   <v>       0.45614035       0.08771930       0.00000000 </v>
   <v>       0.44736842       0.10526316       0.00000000 </v>
   <v>       0.43859649       0.12280702       0.00000000 </v>
   <v>       0.42982456       0.14035088       0.00000000 </v>
   <v>       0.42105263       0.15789474       0.00000000 </v>
   <v>       0.41228070       0.17543860       0.00000000 </v>
   <v>       0.40350877       0.19298246       0.00000000 </v>
   <v>       0.39473684       0.21052632       0.00000000 </v>
   <v>       0.38596491       0.22807018       0.00000000 </v>
   <v>       0.37719298       0.24561404       0.00000000 </v>
   <v>       0.36842105       0.26315789       0.00000000 </v>
   <v>       0.35964912       0.28070175       0.00000000 </v>
   <v>       0.35087719       0.29824561       0.00000000 </v>
   <v>       0.34210526       0.31578947       0.00000000 </v>
   <v>       0.33333333       0.33333333       0.00000000 </v>
   <v>       0.33333333       0.33333333       0.00000000 </v>
   <v>       0.31578947       0.31578947       0.00000000 </v>
   <v>       0.29824561       0.29824561       0.00000000 </v>
   <v>       0.28070175       0.28070175       0.00000000 </v>
   <v>       0.26315789       0.26315789       0.00000000 </v>
   <v>       0.24561404       0.24561404       0.00000000 </v>
   <v>       0.22807018       0.22807018       0.00000000 </v>
   <v>       0.21052632       0.21052632       0.00000000 </v>
   <v>       0.19298246       0.19298246       0.00000000 </v>
   <v>       0.17543860       0.17543860       0.00000000 </v>
   <v>       0.15789474       0.15789474       0.00000000 </v>
   <v>       0.14035088       0.14035088       0.00000000 </v>
   <v>       0.12280702       0.12280702       0.00000000 </v>
   <v>       0.10526316       0.10526316       0.00000000 </v>
   <v>       0.08771930       0.08771930       0.00000000 </v>
   <v>       0.07017544       0.07017544       0.00000000 </v>
   <v>       0.05263158       0.05263158       0.00000000 </v>
   <v>       0.03508772       0.03508772       0.00000000 </v>
   <v>       0.01754386       0.01754386       0.00000000 </v>
   <v>       0.00000000       0.00000000       0.00000000 </v>
  </varray>
  <varray name="weights" >
   <v>       0.01666667 </v>
   <v>       0.01666667 </v>
   <v>       0.01666667 </v>
   <v>       0.01666667 </v>
   <v>       0.01666667 </v>
   <v>       0.01666667 </v>
   <v>       0.01666667 </v>
   <v>       0.01666667 </v>
   <v>       0.01666667 </v>
   <v>       0.01666667 </v>
   <v>       0.01666667 </v>
   <v>       0.01666667 </v>
   <v>       0.01666667 </v>
   <v>       0.01666667 </v>
   <v>       0.01666667 </v>
   <v>       0.01666667 </v>
   <v>       0.01666667 </v>
   <v>       0.01666667 </v>
   <v>       0.01666667 </v>
   <v>       0.01666667 </v>
   <v>       0.01666667 </v>
   <v>       0.01666667 </v>
   <v>       0.01666667 </v>
   <v>       0.01666667 </v>
   <v>       0.01666667 </v>
   <v>       0.01666667 </v>
   <v>       0.01666667 </v>
   <v>       0.01666667 </v>
   <v>       0.01666667 </v>
   <v>       0.01666667 </v>
   <v>       0.01666667 </v>
   <v>       0.01666667 </v>
   <v>       0.01666667 </v>
   <v>       0.01666667 </v>
   <v>       0.01666667 </v>
   <v>       0.01666667 </v>
   <v>       0.01666667 </v>
   <v>       0.01666667 </v>
   <v>       0.01666667 </v>
   <v>       0.01666667 </v>
   <v>       0.01666667 </v>
   <v>       0.01666667 </v>
   <v>       0.01666667 </v>
   <v>       0.01666667 </v>
   <v>       0.01666667 </v>
   <v>       0.01666667 </v>
   <v>       0.01666667 </v>
   <v>       0.01666667 </v>
   <v>       0.01666667 </v>
   <v>       0.01666667 </v>
   <v>       0.01666667 </v>
   <v>       0.01666667 </v>
   <v>       0.01666667 </v>
   <v>       0.01666667 </v>
   <v>       0.01666667 </v>
   <v>       0.01666667 </v>
   <v>       0.01666667 </v>
   <v>       0.01666667 </v>
   <v>       0.01666667 </v>
   <v>       0.01666667 </v>
  </varray>
 </kpoints>
 <parameters>
  <separator name="general" >
   <i type="string" name="SYSTEM">Simulation for cell shape cell volume r</i>
   <i type="logical" name="LCOMPAT"> F  </i>
  </separator>
  <separator name="electronic" >
   <i type="string" name="PREC">high</i>
   <i name="ENMAX">    500.00000000</i>
   <i name="ENAUG">    644.87300000</i>
   <i name="EDIFF">      0.00001000</i>
   <i type="int" name="IALGO">    38</i>
   <i type="int" name="IWAVPR">    10</i>
   <i type="int" name="NBANDS">   112</i>
   <i name="NELECT">    156.00000000</i>
   <i type="int" name="TURBO">     0</i>
   <i type="int" name="IRESTART">     0</i>
   <i type="int" name="NREBOOT">     0</i>
   <i type="int" name="NMIN">     0</i>
   <i name="EREF">      0.00000000</i>
   <separator name="electronic smearing" >
    <i type="int" name="ISMEAR">     0</i>
    <i name="SIGMA">      0.01000000</i>
    <i name="KSPACING">      0.50000000</i>
    <i type="logical" name="KGAMMA"> T  </i>
   </separator>
   <separator name="electronic projectors" >
    <i type="logical" name="LREAL"> T  </i>
    <v name="ROPT">     -0.00040000     -0.00040000     -0.00040000</v>
    <i type="int" name="LMAXPAW">  -100</i>
    <i type="int" name="LMAXMIX">     2</i>
    <i type="logical" name="NLSPLINE"> F  </i>
   </separator>
   <separator name="electronic startup" >
    <i type="int" name="ISTART">     1</i>
    <i type="int" name="ICHARG">    11</i>
    <i type="int" name="INIWAV">     1</i>
   </separator>
   <separator name="electronic spin" >
    <i type="int" name="ISPIN">     1</i>
    <i type="logical" name="LNONCOLLINEAR"> F  </i>
    <v name="MAGMOM">      1.00000000      1.00000000      1.00000000      1.00000000      1.00000000      1.00000000      1.00000000      1.00000000      1.00000000      1.00000000      1.00000000      1.00000000      1.00000000      1.00000000      1.00000000      1.00000000      1.00000000      1.00000000      1.00000000      1.00000000
      1.00000000      1.00000000      1.00000000      1.00000000      1.00000000      1.00000000      1.00000000      1.00000000      1.00000000      1.00000000      1.00000000      1.00000000      1.00000000      1.00000000      1.00000000      1.00000000      1.00000000      1.00000000      1.00000000      1.00000000
      1.00000000      1.00000000      1.00000000      1.00000000      1.00000000      1.00000000      1.00000000      1.00000000      1.00000000      1.00000000      1.00000000</v>
    <i name="NUPDOWN">     -1.00000000</i>
    <i type="logical" name="LSORBIT"> F  </i>
    <v name="SAXIS">      0.00000000      0.00000000      1.00000000</v>
    <i type="logical" name="LSPIRAL"> F  </i>
    <v name="QSPIRAL">      0.00000000      0.00000000      0.00000000</v>
    <i type="logical" name="LZEROZ"> F  </i>
   </separator>
   <separator name="electronic exchange-correlation" >
    <i type="logical" name="LASPH"> F  </i>
    <i type="logical" name="LMETAGGA"> F  </i>
   </separator>
   <separator name="electronic convergence" >
    <i type="int" name="NELM">   200</i>
    <i type="int" name="NELMDL">     0</i>
    <i type="int" name="NELMIN">     2</i>
    <i name="ENINI">    500.00000000</i>
    <separator name="electronic convergence detail" >
     <i type="logical" name="LDIAG"> T  </i>
     <i type="logical" name="LSUBROT"> F  </i>
     <i name="WEIMIN">      0.00000000</i>
     <i name="EBREAK">      0.00000002</i>
     <i name="DEPER">      0.30000000</i>
     <i type="int" name="NRMM">     4</i>
     <i name="TIME">      0.40000000</i>
    </separator>
   </separator>
   <separator name="electronic mixer" >
    <i name="AMIX">      0.40000000</i>
    <i name="BMIX">      1.00000000</i>
    <i name="AMIN">      0.10000000</i>
    <i name="AMIX_MAG">      1.60000000</i>
    <i name="BMIX_MAG">      1.00000000</i>
    <separator name="electronic mixer details" >
     <i type="int" name="IMIX">     4</i>
     <i type="logical" name="MIXFIRST"> F  </i>
     <i type="int" name="MAXMIX">   -45</i>
     <i name="WC">    100.00000000</i>
     <i type="int" name="INIMIX">     1</i>
     <i type="int" name="MIXPRE">     1</i>
     <i type="int" name="MREMOVE">     5</i>
    </separator>
   </separator>
   <separator name="electronic dipolcorrection" >
    <i type="logical" name="LDIPOL"> F  </i>
    <i type="logical" name="LMONO"> F  </i>
    <i type="int" name="IDIPOL">     0</i>
    <i name="EPSILON">      1.00000000</i>
    <v name="DIPOL">   -100.00000000   -100.00000000   -100.00000000</v>
    <i name="EFIELD">      0.00000000</i>
   </separator>
  </separator>
  <separator name="grids" >
   <i type="int" name="NGX">   108</i>
   <i type="int" name="NGY">   108</i>
   <i type="int" name="NGZ">   150</i>
   <i type="int" name="NGXF">   162</i>
   <i type="int" name="NGYF">   162</i>
   <i type="int" name="NGZF">   224</i>
   <i type="logical" name="ADDGRID"> F  </i>
  </separator>
  <separator name="ionic" >
   <i type="int" name="NSW">     0</i>
   <i type="int" name="IBRION">    -1</i>
   <i type="int" name="MDALGO">     0</i>
   <i type="int" name="ISIF">     2</i>
   <i name="PSTRESS">      0.00000000</i>
   <i name="EDIFFG">     -0.01000000</i>
   <i type="int" name="NFREE">     0</i>
   <i name="POTIM">      0.30000000</i>
   <i name="SMASS">     -3.00000000</i>
   <i name="SCALEE">      1.00000000</i>
  </separator>
  <separator name="ionic md" >
   <i name="TEBEG">      0.00010000</i>
   <i name="TEEND">      0.00010000</i>
   <i type="int" name="NBLOCK">     1</i>
   <i type="int" name="KBLOCK">     1</i>
   <i type="int" name="NPACO">   256</i>
   <i name="APACO">     16.00000000</i>
  </separator>
  <separator name="symmetry" >
   <i type="int" name="ISYM">     2</i>
   <i name="SYMPREC">      0.00001000</i>
  </separator>
  <separator name="dos" >
   <i type="int" name="LORBIT">     0</i>
   <v name="RWIGS">     -1.00000000     -1.00000000     -1.00000000</v>
   <i type="int" name="NEDOS">   301</i>
   <i name="EMIN">     10.00000000</i>
   <i name="EMAX">    -10.00000000</i>
   <i name="EFERMI">      0.00000000</i>
  </separator>
  <separator name="writing" >
   <i type="int" name="NWRITE">     0</i>
   <i type="logical" name="LWAVE"> F  </i>
   <i type="logical" name="LDOWNSAMPLE"> F  </i>
   <i type="logical" name="LCHARG"> F  </i>
   <i type="logical" name="LPARD"> F  </i>
   <i type="logical" name="LVTOT"> F  </i>
   <i type="logical" name="LVHAR"> F  </i>
   <i type="logical" name="LELF"> F  </i>
   <i type="logical" name="LOPTICS"> F  </i>
   <v name="STM">      0.00000000      0.00000000      0.00000000      0.00000000      0.00000000      0.00000000      0.00000000</v>
  </separator>
  <separator name="performance" >
   <i type="int" name="NPAR">    16</i>
   <i type="int" name="NSIM">     4</i>
   <i type="int" name="NBLK">    -1</i>
   <i type="logical" name="LPLANE"> T  </i>
   <i type="logical" name="LSCALAPACK"> T  </i>
   <i type="logical" name="LSCAAWARE"> F  </i>
   <i type="logical" name="LSCALU"> F  </i>
   <i type="logical" name="LASYNC"> F  </i>
   <i type="logical" name="LORBITALREAL"> F  </i>
  </separator>
  <separator name="miscellaneous" >
   <i type="int" name="IDIOT">     3</i>
   <i type="int" name="ISPECIAL">     0</i>
   <i type="logical" name="LMUSIC"> F  </i>
   <v name="POMASS">     14.00100000      1.00000000     12.01100000</v>
   <v name="DARWINR">      0.00000000      0.00000000      0.00000000</v>
   <v name="DARWINV">      1.00000000      1.00000000      1.00000000</v>
   <i type="logical" name="LCORR"> T  </i>
  </separator>
  <i type="logical" name="GGA_COMPAT"> T  </i>
  <i type="logical" name="LBERRY"> F  </i>
  <i type="int" name="ICORELEVEL">     0</i>
  <i type="logical" name="LDAU"> F  </i>
  <i type="int" name="I_CONSTRAINED_M">     0</i>
  <separator name="electronic exchange-correlation" >
   <i type="string" name="GGA">PE</i>
   <i type="int" name="VOSKOWN">     0</i>
   <i type="logical" name="LHFCALC"> F  </i>
   <i type="string" name="PRECFOCK"></i>
   <i type="logical" name="LSYMGRAD"> F  </i>
   <i type="logical" name="LHFONE"> F  </i>
   <i type="logical" name="LRHFCALC"> F  </i>
   <i type="logical" name="LTHOMAS"> F  </i>
   <i type="logical" name="LMODELHF"> F  </i>
   <i name="ENCUT4O">     -1.00000000</i>
   <i type="int" name="EXXOEP">     0</i>
   <i type="int" name="FOURORBIT">     0</i>
   <i name="AEXX">      0.00000000</i>
   <i name="HFALPHA">      0.00000000</i>
   <i name="MCALPHA">      0.00000000</i>
   <i name="ALDAX">      1.00000000</i>
   <i name="AGGAX">      1.00000000</i>
   <i name="ALDAC">      1.00000000</i>
   <i name="AGGAC">      1.00000000</i>
   <i type="int" name="NKREDX">     1</i>
   <i type="int" name="NKREDY">     1</i>
   <i type="int" name="NKREDZ">     1</i>
   <i type="logical" name="SHIFTRED"> F  </i>
   <i type="logical" name="ODDONLY"> F  </i>
   <i type="logical" name="EVENONLY"> F  </i>
   <i type="int" name="LMAXFOCK">     0</i>
   <i type="int" name="NMAXFOCKAE">     0</i>
   <i type="logical" name="LFOCKAEDFT"> F  </i>
   <i name="HFSCREEN">      0.00000000</i>
   <i name="HFSCREENC">      0.00000000</i>
   <i type="int" name="NBANDSGWLOW">     0</i>
  </separator>
  <separator name="vdW DFT" >
   <i type="logical" name="LUSE_VDW"> F  </i>
   <i name="Zab_VDW">     -0.84910000</i>
   <i name="PARAM1">      0.12340000</i>
   <i name="PARAM2">      1.00000000</i>
   <i name="PARAM3">      0.00000000</i>
  </separator>
  <separator name="model GW" >
   <i type="int" name="MODEL_GW">     0</i>
   <i name="MODEL_EPS0">     43.94836267</i>
   <i name="MODEL_ALPHA">      1.00000000</i>
  </separator>
  <separator name="linear response parameters" >
   <i type="logical" name="LEPSILON"> F  </i>
   <i type="logical" name="LRPA"> F  </i>
   <i type="logical" name="LNABLA"> F  </i>
   <i type="logical" name="LVEL"> F  </i>
   <i type="int" name="KINTER">     0</i>
   <i name="CSHIFT">      0.10000000</i>
   <i name="OMEGAMAX">     -1.00000000</i>
   <i name="DEG_THRESHOLD">      0.00200000</i>
   <i name="RTIME">     -0.10000000</i>
   <i name="WPLASMAI">      0.00000000</i>
   <v name="DFIELD">      0.00000000      0.00000000      0.00000000</v>
   <v name="WPLASMA">      0.00000000      0.00000000      0.00000000      0.00000000      0.00000000      0.00000000      0.00000000      0.00000000      0.00000000</v>
  </separator>
  <separator name="orbital magnetization" >
   <i type="logical" name="NUCIND"> F  </i>
   <v name="MAGPOS">      0.00000000      0.00000000      0.00000000</v>
   <i type="logical" name="LNICSALL"> T  </i>
   <i type="logical" name="ORBITALMAG"> F  </i>
   <i type="logical" name="LMAGBLOCH"> F  </i>
   <i type="logical" name="LCHIMAG"> F  </i>
   <i type="logical" name="LGAUGE"> T  </i>
   <i type="int" name="MAGATOM">     0</i>
   <v name="MAGDIPOL">      0.00000000      0.00000000      0.00000000</v>
   <v name="AVECCONST">      0.00000000      0.00000000      0.00000000</v>
  </separator>
  <separator name="response functions" >
   <i type="logical" name="LADDER"> F  </i>
   <i type="logical" name="LRPAFORCE"> F  </i>
   <i type="logical" name="LFXC"> F  </i>
   <i type="logical" name="LHARTREE"> T  </i>
   <i type="int" name="IBSE">     0</i>
   <v type="int" name="KPOINT">    -1     0     0     0</v>
   <i type="logical" name="LTCTE"> F  </i>
   <i type="logical" name="LTETE"> F  </i>
   <i type="logical" name="LTRIPLET"> F  </i>
   <i type="logical" name="LFXCEPS"> F  </i>
   <i type="logical" name="LFXHEG"> F  </i>
   <i type="int" name="NATURALO">     2</i>
   <i type="logical" name="L2ORDER"> F  </i>
   <i type="logical" name="LMP2LT"> F  </i>
   <i type="logical" name="LUSEW"> F  </i>
   <i name="ENCUTGW">     -2.00000000</i>
   <i name="ENCUTGWSOFT">     -2.00000000</i>
   <i name="ENCUTLF">     -1.00000000</i>
   <i type="int" name="LMAXMP2">    -1</i>
   <i name="SCISSOR">      0.00000000</i>
   <i type="int" name="NOMEGA">     0</i>
   <i type="int" name="NOMEGAR">     0</i>
   <i type="int" name="NBANDSGW">    -1</i>
   <i type="int" name="NBANDSO">    -1</i>
   <i type="int" name="NBANDSV">    -1</i>
   <i type="int" name="NELM">   200</i>
   <i type="int" name="NELMHF">     1</i>
   <i type="int" name="DIM">     3</i>
   <i type="int" name="ANTIRES">     0</i>
   <i name="OMEGAMAX">    -30.00000000</i>
   <i name="OMEGAMIN">    -30.00000000</i>
   <i name="OMEGATL">   -200.00000000</i>
   <i type="int" name="OMEGAGRID">   140</i>
   <i name="CSHIFT">     -0.10000000</i>
   <i type="logical" name="SELFENERGY"> F  </i>
   <i type="logical" name="LSPECTRAL"> F  </i>
   <i type="logical" name="LSPECTRALGW"> F  </i>
   <i type="logical" name="LSINGLES"> F  </i>
   <i type="logical" name="LFERMIGW"> F  </i>
   <i type="logical" name="ODDONLYGW"> F  </i>
   <i type="logical" name="EVENONLYGW"> F  </i>
   <i type="int" name="NKREDLFX">     1</i>
   <i type="int" name="NKREDLFY">     1</i>
   <i type="int" name="NKREDLFZ">     1</i>
   <i type="int" name="MAXMEM">  2800</i>
   <i type="int" name="TELESCOPE">     0</i>
   <i type="int" name="TAUPAR">     1</i>
   <i type="int" name="OMEGAPAR">    -1</i>
   <i name="LAMBDA">      1.00000000</i>
  </separator>
  <separator name="External order field" >
   <i name="OFIELD_KAPPA">      0.00000000</i>
   <v name="OFIELD_K">      0.00000000      0.00000000      0.00000000</v>
   <i name="OFIELD_Q6_NEAR">      0.00000000</i>
   <i name="OFIELD_Q6_FAR">      0.00000000</i>
   <i name="OFIELD_A">      0.00000000</i>
  </separator>
  <separator name="solvation model" >
   <i type="logical" name="LSOL"> F  </i>
  </separator>
 </parameters>
 <atominfo>
  <atoms>      51 </atoms>
  <types>       3 </types>
  <array name="atoms" >
   <dimension dim="1">ion</dimension>
   <field type="string">element</field>
   <field type="int">atomtype</field>
   <set>
    <rc><c>N </c><c>   1</c></rc>
    <rc><c>N </c><c>   1</c></rc>
    <rc><c>N </c><c>   1</c></rc>
    <rc><c>N </c><c>   1</c></rc>
    <rc><c>N </c><c>   1</c></rc>
    <rc><c>N </c><c>   1</c></rc>
    <rc><c>H </c><c>   2</c></rc>
    <rc><c>H </c><c>   2</c></rc>
    <rc><c>H </c><c>   2</c></rc>
    <rc><c>H </c><c>   2</c></rc>
    <rc><c>H </c><c>   2</c></rc>
    <rc><c>H </c><c>   2</c></rc>
    <rc><c>H </c><c>   2</c></rc>
    <rc><c>H </c><c>   2</c></rc>
    <rc><c>H </c><c>   2</c></rc>
    <rc><c>H </c><c>   2</c></rc>
    <rc><c>H </c><c>   2</c></rc>
    <rc><c>H </c><c>   2</c></rc>
    <rc><c>H </c><c>   2</c></rc>
    <rc><c>H </c><c>   2</c></rc>
    <rc><c>H </c><c>   2</c></rc>
    <rc><c>H </c><c>   2</c></rc>
    <rc><c>H </c><c>   2</c></rc>
    <rc><c>H </c><c>   2</c></rc>
    <rc><c>C </c><c>   3</c></rc>
    <rc><c>C </c><c>   3</c></rc>
    <rc><c>C </c><c>   3</c></rc>
    <rc><c>C </c><c>   3</c></rc>
    <rc><c>C </c><c>   3</c></rc>
    <rc><c>C </c><c>   3</c></rc>
    <rc><c>C </c><c>   3</c></rc>
    <rc><c>C </c><c>   3</c></rc>
    <rc><c>C </c><c>   3</c></rc>
    <rc><c>C </c><c>   3</c></rc>
    <rc><c>C </c><c>   3</c></rc>
    <rc><c>C </c><c>   3</c></rc>
    <rc><c>C </c><c>   3</c></rc>
    <rc><c>C </c><c>   3</c></rc>
    <rc><c>C </c><c>   3</c></rc>
    <rc><c>C </c><c>   3</c></rc>
    <rc><c>C </c><c>   3</c></rc>
    <rc><c>C </c><c>   3</c></rc>
    <rc><c>C </c><c>   3</c></rc>
    <rc><c>C </c><c>   3</c></rc>
    <rc><c>C </c><c>   3</c></rc>
    <rc><c>C </c><c>   3</c></rc>
    <rc><c>C </c><c>   3</c></rc>
    <rc><c>C </c><c>   3</c></rc>
    <rc><c>C </c><c>   3</c></rc>
    <rc><c>C </c><c>   3</c></rc>
    <rc><c>C </c><c>   3</c></rc>
   </set>
  </array>
  <array name="atomtypes" >
   <dimension dim="1">type</dimension>
   <field type="int">atomspertype</field>
   <field type="string">element</field>
   <field>mass</field>
   <field>valence</field>
   <field type="string">pseudopotential</field>
   <set>
    <rc><c>   6</c><c>N </c><c>     14.00100000</c><c>      5.00000000</c><c>  PAW_PBE N 08Apr2002                   </c></rc>
    <rc><c>  18</c><c>H </c><c>      1.00000000</c><c>      1.00000000</c><c>  PAW_PBE H 15Jun2001                   </c></rc>
    <rc><c>  27</c><c>C </c><c>     12.01100000</c><c>      4.00000000</c><c>  PAW_PBE C 08Apr2002                   </c></rc>
   </set>
  </array>
 </atominfo>
 <structure name="initialpos" >
  <crystal>
   <varray name="basis" >
    <v>      14.68771148       0.00205235       0.00000000 </v>
    <v>      -7.34207832      12.71576400       0.00000000 </v>
    <v>       0.00000000       0.00000000      20.00000000 </v>
   </varray>
   <i name="volume">   3735.61082671 </i>
   <varray name="rec_basis" >
    <v>       0.06807863       0.03930858       0.00000000 </v>
    <v>      -0.00001099       0.07863620       0.00000000 </v>
    <v>       0.00000000       0.00000000       0.05000000 </v>
   </varray>
  </crystal>
  <varray name="positions" >
   <v>       0.08261182       0.54556995       0.45280821 </v>
   <v>       0.49755397       0.54550300       0.45285928 </v>
   <v>       0.49776036       0.96063389       0.45271446 </v>
   <v>       0.55450817       0.48926075       0.57298592 </v>
   <v>       0.55432398       0.07389989       0.57282099 </v>
   <v>       0.96939918       0.48903114       0.57291251 </v>
   <v>       0.26140204       0.48829953       0.51150756 </v>
   <v>       0.26147925       0.78176900       0.51143471 </v>
   <v>       0.07021171       0.53959696       0.67973586 </v>
   <v>       0.18013501       0.65455125       0.64536943 </v>
   <v>       0.18013485       0.53450279       0.64542614 </v>
   <v>       0.38899443       0.53455965       0.64538625 </v>
   <v>       0.38882859       0.86312672       0.64527900 </v>
   <v>       0.49711402       0.25290775       0.51367910 </v>
   <v>       0.50394625       0.53962864       0.67979028 </v>
   <v>       0.50899819       0.65461909       0.64541932 </v>
   <v>       0.50374660       0.97305925       0.67966079 </v>
   <v>       0.50885025       0.86313107       0.64533529 </v>
   <v>       0.55477664       0.78165907       0.51136875 </v>
   <v>       0.79050840       0.54629704       0.51372534 </v>
   <v>       0.79042126       0.25279341       0.51360590 </v>
   <v>       0.57009875       0.47276131       0.40531615 </v>
   <v>       0.57041075       0.10591504       0.40512876 </v>
   <v>       0.93737829       0.47288457       0.40522747 </v>
   <v>       0.24895825       0.62878888       0.51170609 </v>
   <v>       0.07495942       0.54183428       0.57301353 </v>
   <v>       0.13174399       0.57018444       0.51212481 </v>
   <v>       0.12911499       0.56900775       0.63978712 </v>
   <v>       0.30437853       0.73882851       0.51180093 </v>
   <v>       0.41438781       0.79423628       0.51164327 </v>
   <v>       0.46895039       0.73877106       0.51177926 </v>
   <v>       0.41435463       0.62873428       0.51171799 </v>
   <v>       0.30434733       0.57414622       0.51186258 </v>
   <v>       0.47304897       0.57017766       0.51216764 </v>
   <v>       0.47451521       0.56908167       0.63982027 </v>
   <v>       0.47307705       0.91150042       0.51204236 </v>
   <v>       0.47434482       0.91415533       0.63970430 </v>
   <v>       0.50160719       0.54195610       0.57306439 </v>
   <v>       0.50146911       0.96831286       0.57292991 </v>
   <v>       0.80295117       0.40578688       0.51329867 </v>
   <v>       0.74754874       0.29573535       0.51314113 </v>
   <v>       0.63752916       0.24037399       0.51323422 </v>
   <v>       0.58290646       0.29579413       0.51319371 </v>
   <v>       0.63757411       0.40584790       0.51335888 </v>
   <v>       0.74759559       0.46047730       0.51322695 </v>
   <v>       0.57899767       0.46445232       0.51351570 </v>
   <v>       0.55020867       0.49291712       0.45368296 </v>
   <v>       0.57895651       0.12318714       0.51334226 </v>
   <v>       0.55037540       0.06590120       0.45351419 </v>
   <v>       0.92011463       0.46433430       0.51343473 </v>
   <v>       0.97737846       0.49292788       0.45360865 </v>
  </varray>
 </structure>
 <calculation>
  <scstep>
   <time name="dav">   27.44   27.66</time>
   <time name="total">   27.52   27.76</time>
   <energy>
    <i name="alphaZ">     30.38627497 </i>
    <i name="ewald">  16129.68550679 </i>
    <i name="hartreedc"> -20897.09940206 </i>
    <i name="XCdc">    541.31325599 </i>
    <i name="pawpsdc">  14409.51019025 </i>
    <i name="pawaedc"> -14436.68479882 </i>
    <i name="eentropy">     -0.00000000 </i>
    <i name="bandstr">  -1917.64955903 </i>
    <i name="atom">   5784.97221972 </i>
    <i name="e_fr_energy">   -355.56631219 </i>
    <i name="e_wo_entrp">   -355.56631219 </i>
    <i name="e_0_energy">   -355.56631219 </i>
   </energy>
  </scstep>
  <scstep>
   <time name="dav">   32.23   32.49</time>
   <time name="total">   32.23   32.50</time>
   <energy>
    <i name="e_fr_energy">   -357.34627022 </i>
    <i name="e_wo_entrp">   -357.34627022 </i>
    <i name="e_0_energy">   -357.34627022 </i>
   </energy>
  </scstep>
  <scstep>
   <time name="dav">   33.40   33.67</time>
   <time name="total">   33.41   33.68</time>
   <energy>
    <i name="e_fr_energy">   -357.38110746 </i>
    <i name="e_wo_entrp">   -357.38110746 </i>
    <i name="e_0_energy">   -357.38110746 </i>
   </energy>
  </scstep>
  <scstep>
   <time name="dav">   31.56   31.81</time>
   <time name="total">   31.56   31.81</time>
   <energy>
    <i name="e_fr_energy">   -357.38174600 </i>
    <i name="e_wo_entrp">   -357.38174600 </i>
    <i name="e_0_energy">   -357.38174600 </i>
   </energy>
  </scstep>
  <scstep>
   <time name="dav">   31.87   32.13</time>
   <time name="total">   31.87   32.14</time>
   <energy>
    <i name="e_fr_energy">   -357.38176070 </i>
    <i name="e_wo_entrp">   -357.38176070 </i>
    <i name="e_0_energy">   -357.38176070 </i>
   </energy>
  </scstep>
  <scstep>
   <time name="dav">   26.41   26.60</time>
   <time name="total">   26.41   26.61</time>
   <energy>
    <i name="alphaZ">     30.38627497 </i>
    <i name="ewald">  16129.68550679 </i>
    <i name="hartreedc"> -20897.09940206 </i>
    <i name="XCdc">    541.31325599 </i>
    <i name="pawpsdc">  14409.51019025 </i>
    <i name="pawaedc"> -14436.68479882 </i>
    <i name="eentropy">     -0.00000000 </i>
    <i name="bandstr">  -1919.46500775 </i>
    <i name="atom">   5784.97221972 </i>
    <i name="e_fr_energy">   -357.38176091 </i>
    <i name="e_wo_entrp">   -357.38176091 </i>
    <i name="e_0_energy">   -357.38176091 </i>
   </energy>
  </scstep>
  <structure>
   <crystal>
    <varray name="basis" >
     <v>      14.68771148       0.00205235       0.00000000 </v>
     <v>      -7.34207832      12.71576400       0.00000000 </v>
     <v>       0.00000000       0.00000000      20.00000000 </v>
    </varray>
    <i name="volume">   3735.61082671 </i>
    <varray name="rec_basis" >
     <v>       0.06807863       0.03930858       0.00000000 </v>
     <v>      -0.00001099       0.07863620       0.00000000 </v>
     <v>       0.00000000       0.00000000       0.05000000 </v>
    </varray>
   </crystal>
   <varray name="positions" >
    <v>       0.08261182       0.54556995       0.45280821 </v>
    <v>       0.49755397       0.54550300       0.45285928 </v>
    <v>       0.49776036       0.96063389       0.45271446 </v>
    <v>       0.55450817       0.48926075       0.57298592 </v>
    <v>       0.55432398       0.07389989       0.57282099 </v>
    <v>       0.96939918       0.48903114       0.57291251 </v>
    <v>       0.26140204       0.48829953       0.51150756 </v>
    <v>       0.26147925       0.78176900       0.51143471 </v>
    <v>       0.07021171       0.53959696       0.67973586 </v>
    <v>       0.18013501       0.65455125       0.64536943 </v>
    <v>       0.18013485       0.53450279       0.64542614 </v>
    <v>       0.38899443       0.53455965       0.64538625 </v>
    <v>       0.38882859       0.86312672       0.64527900 </v>
    <v>       0.49711402       0.25290775       0.51367910 </v>
    <v>       0.50394625       0.53962864       0.67979028 </v>
    <v>       0.50899819       0.65461909       0.64541932 </v>
    <v>       0.50374660       0.97305925       0.67966079 </v>
    <v>       0.50885025       0.86313107       0.64533529 </v>
    <v>       0.55477664       0.78165907       0.51136875 </v>
    <v>       0.79050840       0.54629704       0.51372534 </v>
    <v>       0.79042126       0.25279341       0.51360590 </v>
    <v>       0.57009875       0.47276131       0.40531615 </v>
    <v>       0.57041075       0.10591504       0.40512876 </v>
    <v>       0.93737829       0.47288457       0.40522747 </v>
    <v>       0.24895825       0.62878888       0.51170609 </v>
    <v>       0.07495942       0.54183428       0.57301353 </v>
    <v>       0.13174399       0.57018444       0.51212481 </v>
    <v>       0.12911499       0.56900775       0.63978712 </v>
    <v>       0.30437853       0.73882851       0.51180093 </v>
    <v>       0.41438781       0.79423628       0.51164327 </v>
    <v>       0.46895039       0.73877106       0.51177926 </v>
    <v>       0.41435463       0.62873428       0.51171799 </v>
    <v>       0.30434733       0.57414622       0.51186258 </v>
    <v>       0.47304897       0.57017766       0.51216764 </v>
    <v>       0.47451521       0.56908167       0.63982027 </v>
    <v>       0.47307705       0.91150042       0.51204236 </v>
    <v>       0.47434482       0.91415533       0.63970430 </v>
    <v>       0.50160719       0.54195610       0.57306439 </v>
    <v>       0.50146911       0.96831286       0.57292991 </v>
    <v>       0.80295117       0.40578688       0.51329867 </v>
    <v>       0.74754874       0.29573535       0.51314113 </v>
    <v>       0.63752916       0.24037399       0.51323422 </v>
    <v>       0.58290646       0.29579413       0.51319371 </v>
    <v>       0.63757411       0.40584790       0.51335888 </v>
    <v>       0.74759559       0.46047730       0.51322695 </v>
    <v>       0.57899767       0.46445232       0.51351570 </v>
    <v>       0.55020867       0.49291712       0.45368296 </v>
    <v>       0.57895651       0.12318714       0.51334226 </v>
    <v>       0.55037540       0.06590120       0.45351419 </v>
    <v>       0.92011463       0.46433430       0.51343473 </v>
    <v>       0.97737846       0.49292788       0.45360865 </v>
   </varray>
  </structure>
  <varray name="forces" >
   <v>      -0.00688362      -0.00262610      -0.00120879 </v>
   <v>      -0.00359809      -0.00183321      -0.00058263 </v>
   <v>      -0.00158319       0.00514921      -0.00059078 </v>
   <v>       0.00768321       0.00612521       0.00148384 </v>
   <v>       0.00280634       0.00078511      -0.00312975 </v>
   <v>       0.00005651       0.00420231      -0.00043377 </v>
   <v>       0.00044379       0.00111752      -0.00621672 </v>
   <v>      -0.00106317      -0.00056023      -0.00740951 </v>
   <v>      -0.00292789      -0.00169703       0.00434055 </v>
   <v>       0.00221316      -0.00169472      -0.00478021 </v>
   <v>       0.00033799       0.00342326      -0.00238516 </v>
   <v>      -0.00255262       0.00418823      -0.00216147 </v>
   <v>       0.00176894      -0.00368271      -0.00424642 </v>
   <v>       0.00187844       0.00158774       0.00001477 </v>
   <v>       0.00286262      -0.00179937       0.00411373 </v>
   <v>      -0.00331669      -0.00054407      -0.00437867 </v>
   <v>      -0.00005197       0.00555157       0.00390181 </v>
   <v>      -0.00174496      -0.00390255      -0.00330055 </v>
   <v>      -0.00219601       0.00051577      -0.00728460 </v>
   <v>      -0.00035680      -0.00173530       0.00036528 </v>
   <v>      -0.00137591       0.00132744      -0.00062140 </v>
   <v>       0.00158862      -0.00076791       0.00070941 </v>
   <v>       0.00060062       0.00047847       0.00576268 </v>
   <v>      -0.00202683      -0.00123311       0.00070123 </v>
   <v>      -0.00552084      -0.00386151      -0.00141595 </v>
   <v>      -0.00469732      -0.00027040       0.00121161 </v>
   <v>       0.00174568       0.00114022      -0.00084760 </v>
   <v>       0.00472034       0.00234403       0.00507184 </v>
   <v>      -0.00280090       0.00284909       0.00104217 </v>
   <v>       0.00736622       0.00289690      -0.00239443 </v>
   <v>      -0.00467615      -0.00312160       0.00026177 </v>
   <v>       0.00523154       0.00451006      -0.00299761 </v>
   <v>       0.00057786      -0.00290684      -0.00079617 </v>
   <v>       0.00417361      -0.00459116       0.00017415 </v>
   <v>      -0.00384201       0.00259680       0.00483200 </v>
   <v>       0.00128643       0.00104488      -0.00258902 </v>
   <v>      -0.00053733      -0.00740912       0.00511686 </v>
   <v>       0.00068807      -0.00046602      -0.00267142 </v>
   <v>      -0.00024980      -0.00002329      -0.00335392 </v>
   <v>       0.00291842       0.00121386       0.00242025 </v>
   <v>       0.00378501      -0.00361764       0.00375026 </v>
   <v>      -0.00691411      -0.00069802       0.00463225 </v>
   <v>       0.00379573       0.00255514       0.00414126 </v>
   <v>      -0.00129472      -0.00805325       0.00263822 </v>
   <v>      -0.00084947       0.00204238       0.00689481 </v>
   <v>       0.00256547       0.00012710      -0.00191082 </v>
   <v>       0.00381208      -0.00234528       0.00208501 </v>
   <v>      -0.00055736       0.00002453      -0.00381392 </v>
   <v>       0.00124488       0.00043816       0.00290010 </v>
   <v>      -0.00638176      -0.00023284       0.00054389 </v>
   <v>       0.00184794       0.00143828       0.00241154 </v>
  </varray>
  <varray name="stress" >
   <v>       0.02044982      -0.00109212      -0.00766579 </v>
   <v>      -0.00109212       0.02709977      -0.00907546 </v>
   <v>      -0.00766578      -0.00907546      -0.26882735 </v>
  </varray>
  <energy>
   <i name="e_fr_energy">   -358.49402601 </i>
   <i name="e_wo_entrp">   -358.49402601 </i>
   <i name="e_0_energy">     -0.00000000 </i>
  </energy>
  <time name="totalsc">  205.04  206.70</time>
  <eigenvalues>
   <array>
    <dimension dim="1">band</dimension>
    <dimension dim="2">kpoint</dimension>
    <dimension dim="3">spin</dimension>
    <field>eigene</field>
    <field>occ</field>
    <set>
     <set comment="spin 1">
      <set comment="kpoint 1">
       <r>  -24.0707    1.0000 </r>
       <r>  -24.0511    1.0000 </r>
       <r>  -24.0508    1.0000 </r>
       <r>  -22.2605    1.0000 </r>
       <r>  -22.1699    1.0000 </r>
       <r>  -22.1696    1.0000 </r>
       <r>  -21.2518    1.0000 </r>
       <r>  -21.1454    1.0000 </r>
       <r>  -19.9591    1.0000 </r>
       <r>  -19.9588    1.0000 </r>
       <r>  -19.0295    1.0000 </r>
       <r>  -18.8173    1.0000 </r>
       <r>  -18.8168    1.0000 </r>
       <r>  -17.9028    1.0000 </r>
       <r>  -17.9025    1.0000 </r>
       <r>  -17.2573    1.0000 </r>
       <r>  -17.0570    1.0000 </r>
       <r>  -17.0565    1.0000 </r>
       <r>  -16.0185    1.0000 </r>
       <r>  -16.0052    1.0000 </r>
       <r>  -16.0041    1.0000 </r>
       <r>  -15.0814    1.0000 </r>
       <r>  -15.0811    1.0000 </r>
       <r>  -15.0255    1.0000 </r>
       <r>  -14.4762    1.0000 </r>
       <r>  -14.4754    1.0000 </r>
       <r>  -13.8070    1.0000 </r>
       <r>  -13.8068    1.0000 </r>
       <r>  -12.7504    1.0000 </r>
       <r>  -12.7055    1.0000 </r>
       <r>  -12.5456    1.0000 </r>
       <r>  -12.5452    1.0000 </r>
       <r>  -12.3877    1.0000 </r>
       <r>  -11.6164    1.0000 </r>
       <r>  -11.5471    1.0000 </r>
       <r>  -11.3978    1.0000 </r>
       <r>  -11.3977    1.0000 </r>
       <r>  -11.2538    1.0000 </r>
       <r>  -11.2130    1.0000 </r>
       <r>  -10.5774    1.0000 </r>
       <r>  -10.5767    1.0000 </r>
       <r>  -10.3160    1.0000 </r>
       <r>  -10.3157    1.0000 </r>
       <r>  -10.0188    1.0000 </r>
       <r>  -10.0022    1.0000 </r>
       <r>   -9.7460    1.0000 </r>
       <r>   -9.7459    1.0000 </r>
       <r>   -9.3322    1.0000 </r>
       <r>   -9.3318    1.0000 </r>
       <r>   -9.2708    1.0000 </r>
       <r>   -9.2508    1.0000 </r>
       <r>   -9.2502    1.0000 </r>
       <r>   -9.2262    1.0000 </r>
       <r>   -9.0622    1.0000 </r>
       <r>   -9.0591    1.0000 </r>
       <r>   -9.0589    1.0000 </r>
       <r>   -8.6403    1.0000 </r>
       <r>   -8.5597    1.0000 </r>
       <r>   -8.1860    1.0000 </r>
       <r>   -8.1856    1.0000 </r>
       <r>   -8.1266    1.0000 </r>
       <r>   -8.1263    1.0000 </r>
       <r>   -7.5356    1.0000 </r>
       <r>   -7.5352    1.0000 </r>
       <r>   -7.4791    1.0000 </r>
       <r>   -6.6930    1.0000 </r>
       <r>   -6.6925    1.0000 </r>
       <r>   -6.4899    1.0000 </r>
       <r>   -6.1359    1.0000 </r>
       <r>   -6.1354    1.0000 </r>
       <r>   -6.0772    1.0000 </r>
       <r>   -6.0766    1.0000 </r>
       <r>   -5.8489    1.0000 </r>
       <r>   -5.8014    1.0000 </r>
       <r>   -5.8008    1.0000 </r>
       <r>   -5.2577    1.0000 </r>
       <r>   -5.0664    1.0000 </r>
       <r>   -5.0660    1.0000 </r>
       <r>   -1.9750    0.0000 </r>
       <r>   -1.9741    0.0000 </r>
       <r>   -1.7905    0.0000 </r>
       <r>   -1.3531    0.0000 </r>
       <r>   -1.3521    0.0000 </r>
       <r>   -1.0873    0.0000 </r>
       <r>   -1.0869    0.0000 </r>
       <r>   -0.9507    0.0000 </r>
       <r>   -0.7740    0.0000 </r>
       <r>   -0.7736    0.0000 </r>
       <r>   -0.2770    0.0000 </r>
       <r>    0.2057    0.0000 </r>
       <r>    0.5234    0.0000 </r>
       <r>    0.5412    0.0000 </r>
       <r>    0.5417    0.0000 </r>
       <r>    0.7362    0.0000 </r>
       <r>    0.7370    0.0000 </r>
       <r>    0.8847    0.0000 </r>
       <r>    0.9820    0.0000 </r>
       <r>    1.1544    0.0000 </r>
       <r>    1.1547    0.0000 </r>
       <r>    1.3419    0.0000 </r>
       <r>    1.4088    0.0000 </r>
       <r>    1.4101    0.0000 </r>
       <r>    1.4180    0.0000 </r>
       <r>    1.5046    0.0000 </r>
       <r>    1.5048    0.0000 </r>
       <r>    1.6141    0.0000 </r>
       <r>    1.6788    0.0000 </r>
       <r>    1.7290    0.0000 </r>
       <r>    1.7293    0.0000 </r>
       <r>    1.8077    0.0000 </r>
       <r>    1.8953    0.0000 </r>
       <r>    1.9523    0.0000 </r>
      </set>
      <set comment="kpoint 2">
       <r>  -24.0707    1.0000 </r>
       <r>  -24.0511    1.0000 </r>
       <r>  -24.0508    1.0000 </r>
       <r>  -22.2603    1.0000 </r>
       <r>  -22.1699    1.0000 </r>
       <r>  -22.1698    1.0000 </r>
       <r>  -21.2517    1.0000 </r>
       <r>  -21.1456    1.0000 </r>
       <r>  -19.9589    1.0000 </r>
       <r>  -19.9581    1.0000 </r>
       <r>  -19.0362    1.0000 </r>
       <r>  -18.8169    1.0000 </r>
       <r>  -18.8105    1.0000 </r>
       <r>  -17.9035    1.0000 </r>
       <r>  -17.9026    1.0000 </r>
       <r>  -17.2572    1.0000 </r>
       <r>  -17.0572    1.0000 </r>
       <r>  -17.0568    1.0000 </r>
       <r>  -16.0185    1.0000 </r>
       <r>  -16.0052    1.0000 </r>
       <r>  -16.0041    1.0000 </r>
       <r>  -15.0814    1.0000 </r>
       <r>  -15.0811    1.0000 </r>
       <r>  -15.0254    1.0000 </r>
       <r>  -14.4762    1.0000 </r>
       <r>  -14.4745    1.0000 </r>
       <r>  -13.8078    1.0000 </r>
       <r>  -13.8070    1.0000 </r>
       <r>  -12.7503    1.0000 </r>
       <r>  -12.7055    1.0000 </r>
       <r>  -12.5457    1.0000 </r>
       <r>  -12.5453    1.0000 </r>
       <r>  -12.3877    1.0000 </r>
       <r>  -11.6164    1.0000 </r>
       <r>  -11.5469    1.0000 </r>
       <r>  -11.3994    1.0000 </r>
       <r>  -11.3979    1.0000 </r>
       <r>  -11.2544    1.0000 </r>
       <r>  -11.2106    1.0000 </r>
       <r>  -10.5774    1.0000 </r>
       <r>  -10.5760    1.0000 </r>
       <r>  -10.3162    1.0000 </r>
       <r>  -10.3157    1.0000 </r>
       <r>  -10.0187    1.0000 </r>
       <r>  -10.0026    1.0000 </r>
       <r>   -9.7463    1.0000 </r>
       <r>   -9.7460    1.0000 </r>
       <r>   -9.3322    1.0000 </r>
       <r>   -9.3315    1.0000 </r>
       <r>   -9.2707    1.0000 </r>
       <r>   -9.2508    1.0000 </r>
       <r>   -9.2502    1.0000 </r>
       <r>   -9.2260    1.0000 </r>
       <r>   -9.0643    1.0000 </r>
       <r>   -9.0592    1.0000 </r>
       <r>   -9.0572    1.0000 </r>
       <r>   -8.6404    1.0000 </r>
       <r>   -8.5601    1.0000 </r>
       <r>   -8.1878    1.0000 </r>
       <r>   -8.1870    1.0000 </r>
       <r>   -8.1249    1.0000 </r>
       <r>   -8.1243    1.0000 </r>
       <r>   -7.5357    1.0000 </r>
       <r>   -7.5352    1.0000 </r>
       <r>   -7.4792    1.0000 </r>
       <r>   -6.6929    1.0000 </r>
       <r>   -6.6923    1.0000 </r>
       <r>   -6.4904    1.0000 </r>
       <r>   -6.1358    1.0000 </r>
       <r>   -6.1352    1.0000 </r>
       <r>   -6.0768    1.0000 </r>
       <r>   -6.0762    1.0000 </r>
       <r>   -5.8493    1.0000 </r>
       <r>   -5.8017    1.0000 </r>
       <r>   -5.8008    1.0000 </r>
       <r>   -5.2574    1.0000 </r>
       <r>   -5.0666    1.0000 </r>
       <r>   -5.0662    1.0000 </r>
       <r>   -1.9750    0.0000 </r>
       <r>   -1.9740    0.0000 </r>
       <r>   -1.7909    0.0000 </r>
       <r>   -1.3527    0.0000 </r>
       <r>   -1.3520    0.0000 </r>
       <r>   -1.0870    0.0000 </r>
       <r>   -1.0866    0.0000 </r>
       <r>   -0.9514    0.0000 </r>
       <r>   -0.7744    0.0000 </r>
       <r>   -0.7738    0.0000 </r>
       <r>   -0.2764    0.0000 </r>
       <r>    0.2057    0.0000 </r>
       <r>    0.5226    0.0000 </r>
       <r>    0.5393    0.0000 </r>
       <r>    0.5399    0.0000 </r>
       <r>    0.7368    0.0000 </r>
       <r>    0.7396    0.0000 </r>
       <r>    0.8865    0.0000 </r>
       <r>    0.9834    0.0000 </r>
       <r>    1.1512    0.0000 </r>
       <r>    1.1540    0.0000 </r>
       <r>    1.3425    0.0000 </r>
       <r>    1.3949    0.0000 </r>
       <r>    1.4113    0.0000 </r>
       <r>    1.4323    0.0000 </r>
       <r>    1.5032    0.0000 </r>
       <r>    1.5041    0.0000 </r>
       <r>    1.6161    0.0000 </r>
       <r>    1.6749    0.0000 </r>
       <r>    1.7318    0.0000 </r>
       <r>    1.7322    0.0000 </r>
       <r>    1.8121    0.0000 </r>
       <r>    1.9050    0.0000 </r>
       <r>    1.9420    0.0000 </r>
      </set>
      <set comment="kpoint 3">
       <r>  -24.0706    1.0000 </r>
       <r>  -24.0511    1.0000 </r>
       <r>  -24.0509    1.0000 </r>
       <r>  -22.2599    1.0000 </r>
       <r>  -22.1702    1.0000 </r>
       <r>  -22.1699    1.0000 </r>
       <r>  -21.2514    1.0000 </r>
       <r>  -21.1462    1.0000 </r>
       <r>  -19.9589    1.0000 </r>
       <r>  -19.9554    1.0000 </r>
       <r>  -19.0544    1.0000 </r>
       <r>  -18.8169    1.0000 </r>
       <r>  -18.7921    1.0000 </r>
       <r>  -17.9056    1.0000 </r>
       <r>  -17.9026    1.0000 </r>
       <r>  -17.2567    1.0000 </r>
       <r>  -17.0586    1.0000 </r>
       <r>  -17.0569    1.0000 </r>
       <r>  -16.0185    1.0000 </r>
       <r>  -16.0053    1.0000 </r>
       <r>  -16.0041    1.0000 </r>
       <r>  -15.0814    1.0000 </r>
       <r>  -15.0811    1.0000 </r>
       <r>  -15.0252    1.0000 </r>
       <r>  -14.4761    1.0000 </r>
       <r>  -14.4716    1.0000 </r>
       <r>  -13.8107    1.0000 </r>
       <r>  -13.8071    1.0000 </r>
       <r>  -12.7500    1.0000 </r>
       <r>  -12.7055    1.0000 </r>
       <r>  -12.5462    1.0000 </r>
       <r>  -12.5454    1.0000 </r>
       <r>  -12.3876    1.0000 </r>
       <r>  -11.6162    1.0000 </r>
       <r>  -11.5461    1.0000 </r>
       <r>  -11.4040    1.0000 </r>
       <r>  -11.3981    1.0000 </r>
       <r>  -11.2562    1.0000 </r>
       <r>  -11.2037    1.0000 </r>
       <r>  -10.5776    1.0000 </r>
       <r>  -10.5739    1.0000 </r>
       <r>  -10.3172    1.0000 </r>
       <r>  -10.3153    1.0000 </r>
       <r>  -10.0185    1.0000 </r>
       <r>  -10.0039    1.0000 </r>
       <r>   -9.7475    1.0000 </r>
       <r>   -9.7461    1.0000 </r>
       <r>   -9.3323    1.0000 </r>
       <r>   -9.3305    1.0000 </r>
       <r>   -9.2703    1.0000 </r>
       <r>   -9.2508    1.0000 </r>
       <r>   -9.2502    1.0000 </r>
       <r>   -9.2254    1.0000 </r>
       <r>   -9.0680    1.0000 </r>
       <r>   -9.0596    1.0000 </r>
       <r>   -9.0549    1.0000 </r>
       <r>   -8.6407    1.0000 </r>
       <r>   -8.5614    1.0000 </r>
       <r>   -8.1928    1.0000 </r>
       <r>   -8.1902    1.0000 </r>
       <r>   -8.1201    1.0000 </r>
       <r>   -8.1187    1.0000 </r>
       <r>   -7.5358    1.0000 </r>
       <r>   -7.5350    1.0000 </r>
       <r>   -7.4795    1.0000 </r>
       <r>   -6.6929    1.0000 </r>
       <r>   -6.6919    1.0000 </r>
       <r>   -6.4918    1.0000 </r>
       <r>   -6.1356    1.0000 </r>
       <r>   -6.1344    1.0000 </r>
       <r>   -6.0764    1.0000 </r>
       <r>   -6.0744    1.0000 </r>
       <r>   -5.8505    1.0000 </r>
       <r>   -5.8026    1.0000 </r>
       <r>   -5.8008    1.0000 </r>
       <r>   -5.2566    1.0000 </r>
       <r>   -5.0675    1.0000 </r>
       <r>   -5.0666    1.0000 </r>
       <r>   -1.9750    0.0000 </r>
       <r>   -1.9733    0.0000 </r>
       <r>   -1.7918    0.0000 </r>
       <r>   -1.3523    0.0000 </r>
       <r>   -1.3508    0.0000 </r>
       <r>   -1.0859    0.0000 </r>
       <r>   -1.0856    0.0000 </r>
       <r>   -0.9536    0.0000 </r>
       <r>   -0.7756    0.0000 </r>
       <r>   -0.7743    0.0000 </r>
       <r>   -0.2747    0.0000 </r>
       <r>    0.2056    0.0000 </r>
       <r>    0.5185    0.0000 </r>
       <r>    0.5350    0.0000 </r>
       <r>    0.5356    0.0000 </r>
       <r>    0.7381    0.0000 </r>
       <r>    0.7471    0.0000 </r>
       <r>    0.8917    0.0000 </r>
       <r>    0.9875    0.0000 </r>
       <r>    1.1423    0.0000 </r>
       <r>    1.1517    0.0000 </r>
       <r>    1.3395    0.0000 </r>
       <r>    1.3838    0.0000 </r>
       <r>    1.4147    0.0000 </r>
       <r>    1.4469    0.0000 </r>
       <r>    1.5008    0.0000 </r>
       <r>    1.5022    0.0000 </r>
       <r>    1.6214    0.0000 </r>
       <r>    1.6664    0.0000 </r>
       <r>    1.7376    0.0000 </r>
       <r>    1.7391    0.0000 </r>
       <r>    1.8236    0.0000 </r>
       <r>    1.9181    0.0000 </r>
       <r>    1.9345    0.0000 </r>
      </set>
      <set comment="kpoint 4">
       <r>  -24.0704    1.0000 </r>
       <r>  -24.0512    1.0000 </r>
       <r>  -24.0509    1.0000 </r>
       <r>  -22.2593    1.0000 </r>
       <r>  -22.1709    1.0000 </r>
       <r>  -22.1699    1.0000 </r>
       <r>  -21.2509    1.0000 </r>
       <r>  -21.1473    1.0000 </r>
       <r>  -19.9589    1.0000 </r>
       <r>  -19.9510    1.0000 </r>
       <r>  -19.0799    1.0000 </r>
       <r>  -18.8169    1.0000 </r>
       <r>  -18.7663    1.0000 </r>
       <r>  -17.9091    1.0000 </r>
       <r>  -17.9026    1.0000 </r>
       <r>  -17.2558    1.0000 </r>
       <r>  -17.0611    1.0000 </r>
       <r>  -17.0569    1.0000 </r>
       <r>  -16.0184    1.0000 </r>
       <r>  -16.0054    1.0000 </r>
       <r>  -16.0041    1.0000 </r>
       <r>  -15.0814    1.0000 </r>
       <r>  -15.0811    1.0000 </r>
       <r>  -15.0249    1.0000 </r>
       <r>  -14.4759    1.0000 </r>
       <r>  -14.4669    1.0000 </r>
       <r>  -13.8155    1.0000 </r>
       <r>  -13.8073    1.0000 </r>
       <r>  -12.7494    1.0000 </r>
       <r>  -12.7055    1.0000 </r>
       <r>  -12.5470    1.0000 </r>
       <r>  -12.5454    1.0000 </r>
       <r>  -12.3876    1.0000 </r>
       <r>  -11.6160    1.0000 </r>
       <r>  -11.5447    1.0000 </r>
       <r>  -11.4111    1.0000 </r>
       <r>  -11.3983    1.0000 </r>
       <r>  -11.2591    1.0000 </r>
       <r>  -11.1929    1.0000 </r>
       <r>  -10.5778    1.0000 </r>
       <r>  -10.5706    1.0000 </r>
       <r>  -10.3189    1.0000 </r>
       <r>  -10.3145    1.0000 </r>
       <r>  -10.0180    1.0000 </r>
       <r>  -10.0060    1.0000 </r>
       <r>   -9.7494    1.0000 </r>
       <r>   -9.7462    1.0000 </r>
       <r>   -9.3324    1.0000 </r>
       <r>   -9.3290    1.0000 </r>
       <r>   -9.2697    1.0000 </r>
       <r>   -9.2507    1.0000 </r>
       <r>   -9.2502    1.0000 </r>
       <r>   -9.2244    1.0000 </r>
       <r>   -9.0723    1.0000 </r>
       <r>   -9.0603    1.0000 </r>
       <r>   -9.0528    1.0000 </r>
       <r>   -8.6411    1.0000 </r>
       <r>   -8.5636    1.0000 </r>
       <r>   -8.1997    1.0000 </r>
       <r>   -8.1946    1.0000 </r>
       <r>   -8.1132    1.0000 </r>
       <r>   -8.1109    1.0000 </r>
       <r>   -7.5360    1.0000 </r>
       <r>   -7.5348    1.0000 </r>
       <r>   -7.4800    1.0000 </r>
       <r>   -6.6928    1.0000 </r>
       <r>   -6.6912    1.0000 </r>
       <r>   -6.4942    1.0000 </r>
       <r>   -6.1356    1.0000 </r>
       <r>   -6.1328    1.0000 </r>
       <r>   -6.0758    1.0000 </r>
       <r>   -6.0712    1.0000 </r>
       <r>   -5.8526    1.0000 </r>
       <r>   -5.8043    1.0000 </r>
       <r>   -5.8007    1.0000 </r>
       <r>   -5.2552    1.0000 </r>
       <r>   -5.0691    1.0000 </r>
       <r>   -5.0670    1.0000 </r>
       <r>   -1.9751    0.0000 </r>
       <r>   -1.9721    0.0000 </r>
       <r>   -1.7934    0.0000 </r>
       <r>   -1.3521    0.0000 </r>
       <r>   -1.3483    0.0000 </r>
       <r>   -1.0842    0.0000 </r>
       <r>   -1.0839    0.0000 </r>
       <r>   -0.9571    0.0000 </r>
       <r>   -0.7776    0.0000 </r>
       <r>   -0.7750    0.0000 </r>
       <r>   -0.2719    0.0000 </r>
       <r>    0.2054    0.0000 </r>
       <r>    0.5082    0.0000 </r>
       <r>    0.5279    0.0000 </r>
       <r>    0.5339    0.0000 </r>
       <r>    0.7397    0.0000 </r>
       <r>    0.7587    0.0000 </r>
       <r>    0.8993    0.0000 </r>
       <r>    0.9945    0.0000 </r>
       <r>    1.1296    0.0000 </r>
       <r>    1.1484    0.0000 </r>
       <r>    1.3258    0.0000 </r>
       <r>    1.3843    0.0000 </r>
       <r>    1.4193    0.0000 </r>
       <r>    1.4555    0.0000 </r>
       <r>    1.5004    0.0000 </r>
       <r>    1.5015    0.0000 </r>
       <r>    1.6270    0.0000 </r>
       <r>    1.6594    0.0000 </r>
       <r>    1.7470    0.0000 </r>
       <r>    1.7478    0.0000 </r>
       <r>    1.8398    0.0000 </r>
       <r>    1.9046    0.0000 </r>
       <r>    1.9417    0.0000 </r>
      </set>
      <set comment="kpoint 5">
       <r>  -24.0702    1.0000 </r>
       <r>  -24.0514    1.0000 </r>
       <r>  -24.0510    1.0000 </r>
       <r>  -22.2583    1.0000 </r>
       <r>  -22.1718    1.0000 </r>
       <r>  -22.1699    1.0000 </r>
       <r>  -21.2501    1.0000 </r>
       <r>  -21.1487    1.0000 </r>
       <r>  -19.9589    1.0000 </r>
       <r>  -19.9449    1.0000 </r>
       <r>  -19.1096    1.0000 </r>
       <r>  -18.8169    1.0000 </r>
       <r>  -18.7361    1.0000 </r>
       <r>  -17.9141    1.0000 </r>
       <r>  -17.9026    1.0000 </r>
       <r>  -17.2547    1.0000 </r>
       <r>  -17.0646    1.0000 </r>
       <r>  -17.0569    1.0000 </r>
       <r>  -16.0183    1.0000 </r>
       <r>  -16.0055    1.0000 </r>
       <r>  -16.0041    1.0000 </r>
       <r>  -15.0813    1.0000 </r>
       <r>  -15.0810    1.0000 </r>
       <r>  -15.0245    1.0000 </r>
       <r>  -14.4756    1.0000 </r>
       <r>  -14.4603    1.0000 </r>
       <r>  -13.8223    1.0000 </r>
       <r>  -13.8075    1.0000 </r>
       <r>  -12.7485    1.0000 </r>
       <r>  -12.7056    1.0000 </r>
       <r>  -12.5483    1.0000 </r>
       <r>  -12.5454    1.0000 </r>
       <r>  -12.3876    1.0000 </r>
       <r>  -11.6157    1.0000 </r>
       <r>  -11.5428    1.0000 </r>
       <r>  -11.4197    1.0000 </r>
       <r>  -11.3987    1.0000 </r>
       <r>  -11.2630    1.0000 </r>
       <r>  -11.1793    1.0000 </r>
       <r>  -10.5781    1.0000 </r>
       <r>  -10.5661    1.0000 </r>
       <r>  -10.3212    1.0000 </r>
       <r>  -10.3135    1.0000 </r>
       <r>  -10.0173    1.0000 </r>
       <r>  -10.0089    1.0000 </r>
       <r>   -9.7520    1.0000 </r>
       <r>   -9.7463    1.0000 </r>
       <r>   -9.3324    1.0000 </r>
       <r>   -9.3268    1.0000 </r>
       <r>   -9.2689    1.0000 </r>
       <r>   -9.2507    1.0000 </r>
       <r>   -9.2502    1.0000 </r>
       <r>   -9.2230    1.0000 </r>
       <r>   -9.0772    1.0000 </r>
       <r>   -9.0612    1.0000 </r>
       <r>   -9.0511    1.0000 </r>
       <r>   -8.6417    1.0000 </r>
       <r>   -8.5665    1.0000 </r>
       <r>   -8.2075    1.0000 </r>
       <r>   -8.1995    1.0000 </r>
       <r>   -8.1048    1.0000 </r>
       <r>   -8.1019    1.0000 </r>
       <r>   -7.5363    1.0000 </r>
       <r>   -7.5345    1.0000 </r>
       <r>   -7.4807    1.0000 </r>
       <r>   -6.6928    1.0000 </r>
       <r>   -6.6901    1.0000 </r>
       <r>   -6.4975    1.0000 </r>
       <r>   -6.1354    1.0000 </r>
       <r>   -6.1307    1.0000 </r>
       <r>   -6.0750    1.0000 </r>
       <r>   -6.0668    1.0000 </r>
       <r>   -5.8555    1.0000 </r>
       <r>   -5.8066    1.0000 </r>
       <r>   -5.8006    1.0000 </r>
       <r>   -5.2532    1.0000 </r>
       <r>   -5.0713    1.0000 </r>
       <r>   -5.0675    1.0000 </r>
       <r>   -1.9754    0.0000 </r>
       <r>   -1.9703    0.0000 </r>
       <r>   -1.7955    0.0000 </r>
       <r>   -1.3519    0.0000 </r>
       <r>   -1.3448    0.0000 </r>
       <r>   -1.0819    0.0000 </r>
       <r>   -1.0817    0.0000 </r>
       <r>   -0.9619    0.0000 </r>
       <r>   -0.7804    0.0000 </r>
       <r>   -0.7761    0.0000 </r>
       <r>   -0.2680    0.0000 </r>
       <r>    0.2049    0.0000 </r>
       <r>    0.4929    0.0000 </r>
       <r>    0.5191    0.0000 </r>
       <r>    0.5346    0.0000 </r>
       <r>    0.7408    0.0000 </r>
       <r>    0.7735    0.0000 </r>
       <r>    0.9080    0.0000 </r>
       <r>    1.0046    0.0000 </r>
       <r>    1.1151    0.0000 </r>
       <r>    1.1442    0.0000 </r>
       <r>    1.3059    0.0000 </r>
       <r>    1.3880    0.0000 </r>
       <r>    1.4236    0.0000 </r>
       <r>    1.4600    0.0000 </r>
       <r>    1.5004    0.0000 </r>
       <r>    1.5071    0.0000 </r>
       <r>    1.6259    0.0000 </r>
       <r>    1.6628    0.0000 </r>
       <r>    1.7582    0.0000 </r>
       <r>    1.7589    0.0000 </r>
       <r>    1.8571    0.0000 </r>
       <r>    1.8847    0.0000 </r>
       <r>    1.9559    0.0000 </r>
      </set>
      <set comment="kpoint 6">
       <r>  -24.0700    1.0000 </r>
       <r>  -24.0516    1.0000 </r>
       <r>  -24.0510    1.0000 </r>
       <r>  -22.2572    1.0000 </r>
       <r>  -22.1730    1.0000 </r>
       <r>  -22.1699    1.0000 </r>
       <r>  -21.2492    1.0000 </r>
       <r>  -21.1505    1.0000 </r>
       <r>  -19.9589    1.0000 </r>
       <r>  -19.9370    1.0000 </r>
       <r>  -19.1415    1.0000 </r>
       <r>  -18.8169    1.0000 </r>
       <r>  -18.7037    1.0000 </r>
       <r>  -17.9205    1.0000 </r>
       <r>  -17.9026    1.0000 </r>
       <r>  -17.2532    1.0000 </r>
       <r>  -17.0689    1.0000 </r>
       <r>  -17.0568    1.0000 </r>
       <r>  -16.0182    1.0000 </r>
       <r>  -16.0056    1.0000 </r>
       <r>  -16.0042    1.0000 </r>
       <r>  -15.0813    1.0000 </r>
       <r>  -15.0810    1.0000 </r>
       <r>  -15.0239    1.0000 </r>
       <r>  -14.4753    1.0000 </r>
       <r>  -14.4520    1.0000 </r>
       <r>  -13.8307    1.0000 </r>
       <r>  -13.8078    1.0000 </r>
       <r>  -12.7475    1.0000 </r>
       <r>  -12.7057    1.0000 </r>
       <r>  -12.5498    1.0000 </r>
       <r>  -12.5454    1.0000 </r>
       <r>  -12.3875    1.0000 </r>
       <r>  -11.6154    1.0000 </r>
       <r>  -11.5404    1.0000 </r>
       <r>  -11.4292    1.0000 </r>
       <r>  -11.3993    1.0000 </r>
       <r>  -11.2678    1.0000 </r>
       <r>  -11.1634    1.0000 </r>
       <r>  -10.5786    1.0000 </r>
       <r>  -10.5605    1.0000 </r>
       <r>  -10.3242    1.0000 </r>
       <r>  -10.3121    1.0000 </r>
       <r>  -10.0165    1.0000 </r>
       <r>  -10.0126    1.0000 </r>
       <r>   -9.7552    1.0000 </r>
       <r>   -9.7464    1.0000 </r>
       <r>   -9.3326    1.0000 </r>
       <r>   -9.3240    1.0000 </r>
       <r>   -9.2680    1.0000 </r>
       <r>   -9.2507    1.0000 </r>
       <r>   -9.2501    1.0000 </r>
       <r>   -9.2211    1.0000 </r>
       <r>   -9.0827    1.0000 </r>
       <r>   -9.0623    1.0000 </r>
       <r>   -9.0496    1.0000 </r>
       <r>   -8.6424    1.0000 </r>
       <r>   -8.5700    1.0000 </r>
       <r>   -8.2155    1.0000 </r>
       <r>   -8.2044    1.0000 </r>
       <r>   -8.0957    1.0000 </r>
       <r>   -8.0924    1.0000 </r>
       <r>   -7.5366    1.0000 </r>
       <r>   -7.5342    1.0000 </r>
       <r>   -7.4816    1.0000 </r>
       <r>   -6.6927    1.0000 </r>
       <r>   -6.6887    1.0000 </r>
       <r>   -6.5015    1.0000 </r>
       <r>   -6.1352    1.0000 </r>
       <r>   -6.1282    1.0000 </r>
       <r>   -6.0739    1.0000 </r>
       <r>   -6.0614    1.0000 </r>
       <r>   -5.8591    1.0000 </r>
       <r>   -5.8096    1.0000 </r>
       <r>   -5.8004    1.0000 </r>
       <r>   -5.2507    1.0000 </r>
       <r>   -5.0741    1.0000 </r>
       <r>   -5.0681    1.0000 </r>
       <r>   -1.9758    0.0000 </r>
       <r>   -1.9681    0.0000 </r>
       <r>   -1.7982    0.0000 </r>
       <r>   -1.3516    0.0000 </r>
       <r>   -1.3403    0.0000 </r>
       <r>   -1.0791    0.0000 </r>
       <r>   -1.0788    0.0000 </r>
       <r>   -0.9679    0.0000 </r>
       <r>   -0.7839    0.0000 </r>
       <r>   -0.7775    0.0000 </r>
       <r>   -0.2631    0.0000 </r>
       <r>    0.2040    0.0000 </r>
       <r>    0.4753    0.0000 </r>
       <r>    0.5093    0.0000 </r>
       <r>    0.5364    0.0000 </r>
       <r>    0.7415    0.0000 </r>
       <r>    0.7909    0.0000 </r>
       <r>    0.9159    0.0000 </r>
       <r>    1.0179    0.0000 </r>
       <r>    1.1005    0.0000 </r>
       <r>    1.1397    0.0000 </r>
       <r>    1.2845    0.0000 </r>
       <r>    1.3859    0.0000 </r>
       <r>    1.4257    0.0000 </r>
       <r>    1.4677    0.0000 </r>
       <r>    1.5043    0.0000 </r>
       <r>    1.5143    0.0000 </r>
       <r>    1.6194    0.0000 </r>
       <r>    1.6757    0.0000 </r>
       <r>    1.7701    0.0000 </r>
       <r>    1.7720    0.0000 </r>
       <r>    1.8613    0.0000 </r>
       <r>    1.8795    0.0000 </r>
       <r>    1.9658    0.0000 </r>
      </set>
      <set comment="kpoint 7">
       <r>  -24.0697    1.0000 </r>
       <r>  -24.0519    1.0000 </r>
       <r>  -24.0510    1.0000 </r>
       <r>  -22.2557    1.0000 </r>
       <r>  -22.1745    1.0000 </r>
       <r>  -22.1699    1.0000 </r>
       <r>  -21.2481    1.0000 </r>
       <r>  -21.1526    1.0000 </r>
       <r>  -19.9589    1.0000 </r>
       <r>  -19.9276    1.0000 </r>
       <r>  -19.1746    1.0000 </r>
       <r>  -18.8169    1.0000 </r>
       <r>  -18.6699    1.0000 </r>
       <r>  -17.9283    1.0000 </r>
       <r>  -17.9026    1.0000 </r>
       <r>  -17.2513    1.0000 </r>
       <r>  -17.0740    1.0000 </r>
       <r>  -17.0568    1.0000 </r>
       <r>  -16.0181    1.0000 </r>
       <r>  -16.0057    1.0000 </r>
       <r>  -16.0042    1.0000 </r>
       <r>  -15.0813    1.0000 </r>
       <r>  -15.0810    1.0000 </r>
       <r>  -15.0233    1.0000 </r>
       <r>  -14.4749    1.0000 </r>
       <r>  -14.4419    1.0000 </r>
       <r>  -13.8409    1.0000 </r>
       <r>  -13.8081    1.0000 </r>
       <r>  -12.7463    1.0000 </r>
       <r>  -12.7058    1.0000 </r>
       <r>  -12.5516    1.0000 </r>
       <r>  -12.5454    1.0000 </r>
       <r>  -12.3874    1.0000 </r>
       <r>  -11.6149    1.0000 </r>
       <r>  -11.5376    1.0000 </r>
       <r>  -11.4391    1.0000 </r>
       <r>  -11.4000    1.0000 </r>
       <r>  -11.2734    1.0000 </r>
       <r>  -11.1460    1.0000 </r>
       <r>  -10.5791    1.0000 </r>
       <r>  -10.5540    1.0000 </r>
       <r>  -10.3277    1.0000 </r>
       <r>  -10.3103    1.0000 </r>
       <r>  -10.0171    1.0000 </r>
       <r>  -10.0155    1.0000 </r>
       <r>   -9.7589    1.0000 </r>
       <r>   -9.7466    1.0000 </r>
       <r>   -9.3327    1.0000 </r>
       <r>   -9.3207    1.0000 </r>
       <r>   -9.2670    1.0000 </r>
       <r>   -9.2506    1.0000 </r>
       <r>   -9.2501    1.0000 </r>
       <r>   -9.2189    1.0000 </r>
       <r>   -9.0887    1.0000 </r>
       <r>   -9.0637    1.0000 </r>
       <r>   -9.0484    1.0000 </r>
       <r>   -8.6432    1.0000 </r>
       <r>   -8.5741    1.0000 </r>
       <r>   -8.2235    1.0000 </r>
       <r>   -8.2091    1.0000 </r>
       <r>   -8.0861    1.0000 </r>
       <r>   -8.0826    1.0000 </r>
       <r>   -7.5370    1.0000 </r>
       <r>   -7.5337    1.0000 </r>
       <r>   -7.4827    1.0000 </r>
       <r>   -6.6927    1.0000 </r>
       <r>   -6.6871    1.0000 </r>
       <r>   -6.5062    1.0000 </r>
       <r>   -6.1349    1.0000 </r>
       <r>   -6.1253    1.0000 </r>
       <r>   -6.0724    1.0000 </r>
       <r>   -6.0550    1.0000 </r>
       <r>   -5.8635    1.0000 </r>
       <r>   -5.8132    1.0000 </r>
       <r>   -5.8002    1.0000 </r>
       <r>   -5.2476    1.0000 </r>
       <r>   -5.0775    1.0000 </r>
       <r>   -5.0688    1.0000 </r>
       <r>   -1.9762    0.0000 </r>
       <r>   -1.9654    0.0000 </r>
       <r>   -1.8014    0.0000 </r>
       <r>   -1.3513    0.0000 </r>
       <r>   -1.3349    0.0000 </r>
       <r>   -1.0758    0.0000 </r>
       <r>   -1.0754    0.0000 </r>
       <r>   -0.9749    0.0000 </r>
       <r>   -0.7881    0.0000 </r>
       <r>   -0.7793    0.0000 </r>
       <r>   -0.2572    0.0000 </r>
       <r>    0.2024    0.0000 </r>
       <r>    0.4569    0.0000 </r>
       <r>    0.4992    0.0000 </r>
       <r>    0.5388    0.0000 </r>
       <r>    0.7417    0.0000 </r>
       <r>    0.8099    0.0000 </r>
       <r>    0.9213    0.0000 </r>
       <r>    1.0341    0.0000 </r>
       <r>    1.0874    0.0000 </r>
       <r>    1.1355    0.0000 </r>
       <r>    1.2635    0.0000 </r>
       <r>    1.3766    0.0000 </r>
       <r>    1.4243    0.0000 </r>
       <r>    1.4802    0.0000 </r>
       <r>    1.5133    0.0000 </r>
       <r>    1.5213    0.0000 </r>
       <r>    1.6137    0.0000 </r>
       <r>    1.6910    0.0000 </r>
       <r>    1.7823    0.0000 </r>
       <r>    1.7850    0.0000 </r>
       <r>    1.8466    0.0000 </r>
       <r>    1.8946    0.0000 </r>
       <r>    1.9785    0.0000 </r>
      </set>
      <set comment="kpoint 8">
       <r>  -24.0693    1.0000 </r>
       <r>  -24.0523    1.0000 </r>
       <r>  -24.0510    1.0000 </r>
       <r>  -22.2541    1.0000 </r>
       <r>  -22.1762    1.0000 </r>
       <r>  -22.1699    1.0000 </r>
       <r>  -21.2467    1.0000 </r>
       <r>  -21.1551    1.0000 </r>
       <r>  -19.9589    1.0000 </r>
       <r>  -19.9166    1.0000 </r>
       <r>  -19.2081    1.0000 </r>
       <r>  -18.8169    1.0000 </r>
       <r>  -18.6356    1.0000 </r>
       <r>  -17.9374    1.0000 </r>
       <r>  -17.9026    1.0000 </r>
       <r>  -17.2492    1.0000 </r>
       <r>  -17.0798    1.0000 </r>
       <r>  -17.0568    1.0000 </r>
       <r>  -16.0180    1.0000 </r>
       <r>  -16.0059    1.0000 </r>
       <r>  -16.0042    1.0000 </r>
       <r>  -15.0812    1.0000 </r>
       <r>  -15.0809    1.0000 </r>
       <r>  -15.0227    1.0000 </r>
       <r>  -14.4744    1.0000 </r>
       <r>  -14.4304    1.0000 </r>
       <r>  -13.8527    1.0000 </r>
       <r>  -13.8085    1.0000 </r>
       <r>  -12.7450    1.0000 </r>
       <r>  -12.7059    1.0000 </r>
       <r>  -12.5536    1.0000 </r>
       <r>  -12.5454    1.0000 </r>
       <r>  -12.3874    1.0000 </r>
       <r>  -11.6144    1.0000 </r>
       <r>  -11.5342    1.0000 </r>
       <r>  -11.4490    1.0000 </r>
       <r>  -11.4009    1.0000 </r>
       <r>  -11.2796    1.0000 </r>
       <r>  -11.1277    1.0000 </r>
       <r>  -10.5798    1.0000 </r>
       <r>  -10.5469    1.0000 </r>
       <r>  -10.3317    1.0000 </r>
       <r>  -10.3082    1.0000 </r>
       <r>  -10.0222    1.0000 </r>
       <r>  -10.0144    1.0000 </r>
       <r>   -9.7631    1.0000 </r>
       <r>   -9.7468    1.0000 </r>
       <r>   -9.3328    1.0000 </r>
       <r>   -9.3169    1.0000 </r>
       <r>   -9.2659    1.0000 </r>
       <r>   -9.2506    1.0000 </r>
       <r>   -9.2499    1.0000 </r>
       <r>   -9.2164    1.0000 </r>
       <r>   -9.0952    1.0000 </r>
       <r>   -9.0653    1.0000 </r>
       <r>   -9.0473    1.0000 </r>
       <r>   -8.6442    1.0000 </r>
       <r>   -8.5786    1.0000 </r>
       <r>   -8.2313    1.0000 </r>
       <r>   -8.2133    1.0000 </r>
       <r>   -8.0764    1.0000 </r>
       <r>   -8.0730    1.0000 </r>
       <r>   -7.5375    1.0000 </r>
       <r>   -7.5331    1.0000 </r>
       <r>   -7.4839    1.0000 </r>
       <r>   -6.6926    1.0000 </r>
       <r>   -6.6852    1.0000 </r>
       <r>   -6.5115    1.0000 </r>
       <r>   -6.1345    1.0000 </r>
       <r>   -6.1221    1.0000 </r>
       <r>   -6.0703    1.0000 </r>
       <r>   -6.0479    1.0000 </r>
       <r>   -5.8687    1.0000 </r>
       <r>   -5.8174    1.0000 </r>
       <r>   -5.8000    1.0000 </r>
       <r>   -5.2441    1.0000 </r>
       <r>   -5.0814    1.0000 </r>
       <r>   -5.0696    1.0000 </r>
       <r>   -1.9766    0.0000 </r>
       <r>   -1.9623    0.0000 </r>
       <r>   -1.8051    0.0000 </r>
       <r>   -1.3510    0.0000 </r>
       <r>   -1.3286    0.0000 </r>
       <r>   -1.0722    0.0000 </r>
       <r>   -1.0715    0.0000 </r>
       <r>   -0.9828    0.0000 </r>
       <r>   -0.7928    0.0000 </r>
       <r>   -0.7813    0.0000 </r>
       <r>   -0.2504    0.0000 </r>
       <r>    0.1999    0.0000 </r>
       <r>    0.4388    0.0000 </r>
       <r>    0.4892    0.0000 </r>
       <r>    0.5416    0.0000 </r>
       <r>    0.7418    0.0000 </r>
       <r>    0.8301    0.0000 </r>
       <r>    0.9229    0.0000 </r>
       <r>    1.0515    0.0000 </r>
       <r>    1.0773    0.0000 </r>
       <r>    1.1318    0.0000 </r>
       <r>    1.2445    0.0000 </r>
       <r>    1.3634    0.0000 </r>
       <r>    1.4200    0.0000 </r>
       <r>    1.4915    0.0000 </r>
       <r>    1.5269    0.0000 </r>
       <r>    1.5301    0.0000 </r>
       <r>    1.6115    0.0000 </r>
       <r>    1.7041    0.0000 </r>
       <r>    1.7937    0.0000 </r>
       <r>    1.7961    0.0000 </r>
       <r>    1.8372    0.0000 </r>
       <r>    1.9112    0.0000 </r>
       <r>    1.9843    0.0000 </r>
      </set>
      <set comment="kpoint 9">
       <r>  -24.0689    1.0000 </r>
       <r>  -24.0527    1.0000 </r>
       <r>  -24.0510    1.0000 </r>
       <r>  -22.2522    1.0000 </r>
       <r>  -22.1780    1.0000 </r>
       <r>  -22.1699    1.0000 </r>
       <r>  -21.2452    1.0000 </r>
       <r>  -21.1577    1.0000 </r>
       <r>  -19.9589    1.0000 </r>
       <r>  -19.9042    1.0000 </r>
       <r>  -19.2418    1.0000 </r>
       <r>  -18.8169    1.0000 </r>
       <r>  -18.6012    1.0000 </r>
       <r>  -17.9478    1.0000 </r>
       <r>  -17.9025    1.0000 </r>
       <r>  -17.2467    1.0000 </r>
       <r>  -17.0862    1.0000 </r>
       <r>  -17.0567    1.0000 </r>
       <r>  -16.0179    1.0000 </r>
       <r>  -16.0061    1.0000 </r>
       <r>  -16.0043    1.0000 </r>
       <r>  -15.0812    1.0000 </r>
       <r>  -15.0809    1.0000 </r>
       <r>  -15.0220    1.0000 </r>
       <r>  -14.4740    1.0000 </r>
       <r>  -14.4174    1.0000 </r>
       <r>  -13.8658    1.0000 </r>
       <r>  -13.8089    1.0000 </r>
       <r>  -12.7435    1.0000 </r>
       <r>  -12.7060    1.0000 </r>
       <r>  -12.5558    1.0000 </r>
       <r>  -12.5454    1.0000 </r>
       <r>  -12.3873    1.0000 </r>
       <r>  -11.6138    1.0000 </r>
       <r>  -11.5303    1.0000 </r>
       <r>  -11.4586    1.0000 </r>
       <r>  -11.4021    1.0000 </r>
       <r>  -11.2863    1.0000 </r>
       <r>  -11.1089    1.0000 </r>
       <r>  -10.5806    1.0000 </r>
       <r>  -10.5393    1.0000 </r>
       <r>  -10.3362    1.0000 </r>
       <r>  -10.3057    1.0000 </r>
       <r>  -10.0280    1.0000 </r>
       <r>  -10.0132    1.0000 </r>
       <r>   -9.7676    1.0000 </r>
       <r>   -9.7469    1.0000 </r>
       <r>   -9.3329    1.0000 </r>
       <r>   -9.3126    1.0000 </r>
       <r>   -9.2648    1.0000 </r>
       <r>   -9.2506    1.0000 </r>
       <r>   -9.2497    1.0000 </r>
       <r>   -9.2135    1.0000 </r>
       <r>   -9.1022    1.0000 </r>
       <r>   -9.0670    1.0000 </r>
       <r>   -9.0465    1.0000 </r>
       <r>   -8.6453    1.0000 </r>
       <r>   -8.5834    1.0000 </r>
       <r>   -8.2386    1.0000 </r>
       <r>   -8.2171    1.0000 </r>
       <r>   -8.0668    1.0000 </r>
       <r>   -8.0635    1.0000 </r>
       <r>   -7.5380    1.0000 </r>
       <r>   -7.5325    1.0000 </r>
       <r>   -7.4852    1.0000 </r>
       <r>   -6.6925    1.0000 </r>
       <r>   -6.6830    1.0000 </r>
       <r>   -6.5172    1.0000 </r>
       <r>   -6.1341    1.0000 </r>
       <r>   -6.1190    1.0000 </r>
       <r>   -6.0676    1.0000 </r>
       <r>   -6.0401    1.0000 </r>
       <r>   -5.8745    1.0000 </r>
       <r>   -5.8221    1.0000 </r>
       <r>   -5.7997    1.0000 </r>
       <r>   -5.2401    1.0000 </r>
       <r>   -5.0859    1.0000 </r>
       <r>   -5.0705    1.0000 </r>
       <r>   -1.9771    0.0000 </r>
       <r>   -1.9588    0.0000 </r>
       <r>   -1.8092    0.0000 </r>
       <r>   -1.3507    0.0000 </r>
       <r>   -1.3215    0.0000 </r>
       <r>   -1.0685    0.0000 </r>
       <r>   -1.0672    0.0000 </r>
       <r>   -0.9913    0.0000 </r>
       <r>   -0.7980    0.0000 </r>
       <r>   -0.7836    0.0000 </r>
       <r>   -0.2427    0.0000 </r>
       <r>    0.1961    0.0000 </r>
       <r>    0.4220    0.0000 </r>
       <r>    0.4794    0.0000 </r>
       <r>    0.5446    0.0000 </r>
       <r>    0.7421    0.0000 </r>
       <r>    0.8507    0.0000 </r>
       <r>    0.9202    0.0000 </r>
       <r>    1.0612    0.0000 </r>
       <r>    1.0780    0.0000 </r>
       <r>    1.1294    0.0000 </r>
       <r>    1.2292    0.0000 </r>
       <r>    1.3490    0.0000 </r>
       <r>    1.4137    0.0000 </r>
       <r>    1.4949    0.0000 </r>
       <r>    1.5440    0.0000 </r>
       <r>    1.5448    0.0000 </r>
       <r>    1.6129    0.0000 </r>
       <r>    1.7111    0.0000 </r>
       <r>    1.7993    0.0000 </r>
       <r>    1.8020    0.0000 </r>
       <r>    1.8378    0.0000 </r>
       <r>    1.9324    0.0000 </r>
       <r>    1.9579    0.0000 </r>
      </set>
      <set comment="kpoint 10">
       <r>  -24.0685    1.0000 </r>
[...]
       <r>    0.2057    0.0000 </r>
       <r>    0.5234    0.0000 </r>
       <r>    0.5412    0.0000 </r>
       <r>    0.5417    0.0000 </r>
       <r>    0.7362    0.0000 </r>
       <r>    0.7370    0.0000 </r>
       <r>    0.8847    0.0000 </r>
       <r>    0.9820    0.0000 </r>
       <r>    1.1544    0.0000 </r>
       <r>    1.1548    0.0000 </r>
       <r>    1.3419    0.0000 </r>
       <r>    1.4088    0.0000 </r>
       <r>    1.4101    0.0000 </r>
       <r>    1.4181    0.0000 </r>
       <r>    1.5046    0.0000 </r>
       <r>    1.5048    0.0000 </r>
       <r>    1.6141    0.0000 </r>
       <r>    1.6788    0.0000 </r>
       <r>    1.7290    0.0000 </r>
       <r>    1.7295    0.0000 </r>
       <r>    1.8078    0.0000 </r>
       <r>    1.8962    0.0000 </r>
       <r>    1.9560    0.0000 </r>
      </set>
     </set>
    </set>
   </array>
  </eigenvalues>
  <separator name="orbital magnetization" >
   <v name="MAGDIPOLOUT">      0.00000000      0.00000000      0.00000000</v>
  </separator>
  <dos>
   <i name="efermi">     -4.96596455 </i>
   <total>
    <array>
     <dimension dim="1">gridpoints</dimension>
     <dimension dim="2">spin</dimension>
     <field>energy</field>
     <field>total</field>
     <field>integrated</field>
     <set>
      <set comment="spin 1">
       <r>   -25.3758     0.0000     0.0000 </r>
       <r>   -25.2801     0.0000     0.0000 </r>
       <r>   -25.1844     0.0000     0.0000 </r>
       <r>   -25.0887     0.0000     0.0000 </r>
       <r>   -24.9930     0.0000     0.0000 </r>
       <r>   -24.8973     0.0000     0.0000 </r>
       <r>   -24.8016     0.0000     0.0000 </r>
       <r>   -24.7059     0.0000     0.0000 </r>
       <r>   -24.6101     0.0000     0.0000 </r>
       <r>   -24.5144     0.0000     0.0000 </r>
       <r>   -24.4187     0.0000     0.0000 </r>
       <r>   -24.3230     0.0000     0.0000 </r>
       <r>   -24.2273     0.0000     0.0000 </r>
       <r>   -24.1316     0.0000     0.0000 </r>
       <r>   -24.0359    62.2388     5.9568 </r>
       <r>   -23.9402     0.0000     6.0000 </r>
       <r>   -23.8445     0.0000     6.0000 </r>
       <r>   -23.7488     0.0000     6.0000 </r>
       <r>   -23.6531     0.0000     6.0000 </r>
       <r>   -23.5574     0.0000     6.0000 </r>
       <r>   -23.4616     0.0000     6.0000 </r>
       <r>   -23.3659     0.0000     6.0000 </r>
       <r>   -23.2702     0.0000     6.0000 </r>
       <r>   -23.1745     0.0000     6.0000 </r>
       <r>   -23.0788     0.0000     6.0000 </r>
       <r>   -22.9831     0.0000     6.0000 </r>
       <r>   -22.8874     0.0000     6.0000 </r>
       <r>   -22.7917     0.0000     6.0000 </r>
       <r>   -22.6960     0.0000     6.0000 </r>
       <r>   -22.6003     0.0000     6.0000 </r>
       <r>   -22.5046     0.0000     6.0000 </r>
       <r>   -22.4088     0.0000     6.0000 </r>
       <r>   -22.3131     0.0000     6.0000 </r>
       <r>   -22.2174    19.9962     7.9138 </r>
       <r>   -22.1217    35.4968    12.0000 </r>
       <r>   -22.0260     0.0000    12.0000 </r>
       <r>   -21.9303     0.0000    12.0000 </r>
       <r>   -21.8346     0.0000    12.0000 </r>
       <r>   -21.7389     0.0000    12.0000 </r>
       <r>   -21.6432     0.0000    12.0000 </r>
       <r>   -21.5475     0.0000    12.0000 </r>
       <r>   -21.4518     0.0000    12.0000 </r>
       <r>   -21.3561     0.0000    12.0000 </r>
       <r>   -21.2603     0.4250    12.0407 </r>
       <r>   -21.1646    28.8695    15.3307 </r>
       <r>   -21.0689     3.1167    16.0000 </r>
       <r>   -20.9732     0.0000    16.0000 </r>
       <r>   -20.8775     0.0000    16.0000 </r>
       <r>   -20.7818     0.0000    16.0000 </r>
       <r>   -20.6861     0.0000    16.0000 </r>
       <r>   -20.5904     0.0000    16.0000 </r>
       <r>   -20.4947     0.0000    16.0000 </r>
       <r>   -20.3990     0.0000    16.0000 </r>
       <r>   -20.3033     0.0000    16.0000 </r>
       <r>   -20.2076     0.0000    16.0000 </r>
       <r>   -20.1118     0.0000    16.0000 </r>
       <r>   -20.0161     0.0000    16.0000 </r>
       <r>   -19.9204    25.5570    18.4460 </r>
       <r>   -19.8247     3.5734    18.8426 </r>
       <r>   -19.7290     6.5748    19.4965 </r>
       <r>   -19.6333     4.6217    20.0425 </r>
       <r>   -19.5376     4.2349    20.5057 </r>
       <r>   -19.4419     4.5404    21.0680 </r>
       <r>   -19.3462     1.4486    21.2720 </r>
       <r>   -19.2505     1.5045    21.4440 </r>
       <r>   -19.1548     1.3884    21.6329 </r>
       <r>   -19.0590     1.7069    21.8300 </r>
       <r>   -18.9633     1.3923    22.0000 </r>
       <r>   -18.8676     0.0000    22.0000 </r>
       <r>   -18.7719    23.0474    24.2058 </r>
       <r>   -18.6762     1.6555    24.3919 </r>
       <r>   -18.5805     1.4001    24.5673 </r>
       <r>   -18.4848     1.4833    24.7420 </r>
       <r>   -18.3891     1.8275    24.9420 </r>
       <r>   -18.2934     5.8201    25.5239 </r>
       <r>   -18.1977     4.1576    25.9982 </r>
       <r>   -18.1020     5.6487    26.5413 </r>
       <r>   -18.0063     5.2434    27.2028 </r>
       <r>   -17.9105     8.0352    28.0358 </r>
       <r>   -17.8148     0.0000    30.0000 </r>
       <r>   -17.7191     0.0000    30.0000 </r>
       <r>   -17.6234     0.0000    30.0000 </r>
       <r>   -17.5277     0.0000    30.0000 </r>
       <r>   -17.4320     0.0000    30.0000 </r>
       <r>   -17.3363     0.0000    30.0000 </r>
       <r>   -17.2406     6.7198    30.6431 </r>
       <r>   -17.1449    20.3320    32.8797 </r>
       <r>   -17.0492    26.8333    35.6686 </r>
       <r>   -16.9535     0.0000    36.0000 </r>
       <r>   -16.8578     0.0000    36.0000 </r>
       <r>   -16.7620     0.0000    36.0000 </r>
       <r>   -16.6663     0.0000    36.0000 </r>
       <r>   -16.5706     0.0000    36.0000 </r>
       <r>   -16.4749     0.0000    36.0000 </r>
       <r>   -16.3792     0.0000    36.0000 </r>
       <r>   -16.2835     0.0000    36.0000 </r>
       <r>   -16.1878     0.0000    36.0000 </r>
       <r>   -16.0921     0.0000    36.0000 </r>
       <r>   -15.9964    58.3834    41.5878 </r>
       <r>   -15.9007     0.0000    42.0000 </r>
       <r>   -15.8050     0.0000    42.0000 </r>
       <r>   -15.7093     0.0000    42.0000 </r>
       <r>   -15.6135     0.0000    42.0000 </r>
       <r>   -15.5178     0.0000    42.0000 </r>
       <r>   -15.4221     0.0000    42.0000 </r>
       <r>   -15.3264     0.0000    42.0000 </r>
       <r>   -15.2307     0.0000    42.0000 </r>
       <r>   -15.1350     0.0000    42.0000 </r>
       <r>   -15.0393    41.9160    46.0117 </r>
       <r>   -14.9436    17.0253    48.0000 </r>
       <r>   -14.8479     0.0000    48.0000 </r>
       <r>   -14.7522     0.0000    48.0000 </r>
       <r>   -14.6565     0.0000    48.0000 </r>
       <r>   -14.5607     0.0000    48.0000 </r>
       <r>   -14.4650    18.7188    49.7915 </r>
       <r>   -14.3693     3.7583    50.7264 </r>
       <r>   -14.2736     4.6606    51.2461 </r>
       <r>   -14.1779     4.8744    52.0000 </r>
       <r>   -14.0822     0.0002    52.0000 </r>
       <r>   -13.9865    10.4365    52.9989 </r>
       <r>   -13.8908     3.1106    53.3644 </r>
       <r>   -13.7951    26.4074    55.9608 </r>
       <r>   -13.6994     0.0000    56.0000 </r>
       <r>   -13.6037     0.0000    56.0000 </r>
       <r>   -13.5080     0.0000    56.0000 </r>
       <r>   -13.4122     0.0000    56.0000 </r>
       <r>   -13.3165     0.0000    56.0000 </r>
       <r>   -13.2208     0.0000    56.0000 </r>
       <r>   -13.1251     0.0000    56.0000 </r>
       <r>   -13.0294     0.0000    56.0000 </r>
       <r>   -12.9337     0.0000    56.0000 </r>
       <r>   -12.8380     0.0000    56.0000 </r>
       <r>   -12.7423     5.9888    56.5732 </r>
       <r>   -12.6466    20.8968    60.0000 </r>
       <r>   -12.5509    21.8933    62.0954 </r>
       <r>   -12.4552     0.0000    64.0000 </r>
       <r>   -12.3595    20.8959    65.9999 </r>
       <r>   -12.2637     0.0000    66.0000 </r>
       <r>   -12.1680     0.0000    66.0000 </r>
       <r>   -12.0723     0.0000    66.0000 </r>
       <r>   -11.9766     0.0000    66.0000 </r>
       <r>   -11.8809     0.0000    66.0000 </r>
       <r>   -11.7852     0.0000    66.0000 </r>
       <r>   -11.6895     0.0000    66.0000 </r>
       <r>   -11.5938    20.5569    67.9675 </r>
       <r>   -11.4981    21.6809    70.0751 </r>
       <r>   -11.4024    30.7913    73.3832 </r>
       <r>   -11.3067    13.5854    75.3003 </r>
       <r>   -11.2109     6.7430    76.0789 </r>
       <r>   -11.1152     3.2083    76.5073 </r>
       <r>   -11.0195     2.7587    76.8307 </r>
       <r>   -10.9238     9.9848    77.8557 </r>
       <r>   -10.8281     0.0000    78.0000 </r>
       <r>   -10.7324     0.0000    78.0000 </r>
       <r>   -10.6367     0.0007    78.0001 </r>
       <r>   -10.5410    26.2828    80.5156 </r>
       <r>   -10.4453    14.2763    82.0000 </r>
       <r>   -10.3496    13.6839    83.3097 </r>
       <r>   -10.2539    22.4926    85.6532 </r>
       <r>   -10.1582     0.0000    86.0000 </r>
       <r>   -10.0624    12.0736    87.1555 </r>
       <r>    -9.9667    28.2086    90.0000 </r>
       <r>    -9.8710     0.0000    90.0000 </r>
       <r>    -9.7753    14.2928    91.3679 </r>
       <r>    -9.6796    25.4148    94.0000 </r>
       <r>    -9.5839     0.0000    94.0000 </r>
       <r>    -9.4882     0.0000    94.0000 </r>
       <r>    -9.3925     0.0000    94.0000 </r>
       <r>    -9.2968    28.5554    96.7330 </r>
       <r>    -9.2011    84.5888   105.0297 </r>
       <r>    -9.1054    17.8543   107.4452 </r>
       <r>    -9.0097    46.3048   112.0000 </r>
       <r>    -8.9139     0.0000   112.0000 </r>
       <r>    -8.8182     0.0000   112.0000 </r>
       <r>    -8.7225     0.0000   112.0000 </r>
       <r>    -8.6268    21.7761   114.0842 </r>
       <r>    -8.5311    10.0906   116.0000 </r>
       <r>    -8.4354     0.0000   116.0000 </r>
       <r>    -8.3397     4.3845   116.4196 </r>
       <r>    -8.2440     9.5205   117.4785 </r>
       <r>    -8.1483    18.2093   119.6108 </r>
       <r>    -8.0526    22.0654   121.8459 </r>
       <r>    -7.9569    18.8400   123.9702 </r>
       <r>    -7.8611     0.0000   124.0000 </r>
       <r>    -7.7654     0.0000   124.0000 </r>
       <r>    -7.6697     0.0000   124.0000 </r>
       <r>    -7.5740     0.0005   124.0001 </r>
       <r>    -7.4783    60.4706   129.7876 </r>
       <r>    -7.3826     0.0000   130.0000 </r>
       <r>    -7.2869     0.0000   130.0000 </r>
       <r>    -7.1912     0.0000   130.0000 </r>
       <r>    -7.0955     0.0000   130.0000 </r>
       <r>    -6.9998     0.0000   130.0000 </r>
       <r>    -6.9041     0.0000   130.0000 </r>
       <r>    -6.8084     0.0000   130.0000 </r>
       <r>    -6.7126     0.0453   130.0043 </r>
       <r>    -6.6169    41.7482   134.0000 </r>
       <r>    -6.5212    14.9341   135.4293 </r>
       <r>    -6.4255     4.1738   136.0000 </r>
       <r>    -6.3298     0.0000   136.0000 </r>
       <r>    -6.2341     0.0000   136.0000 </r>
       <r>    -6.1384    10.8773   137.0410 </r>
       <r>    -6.0427    30.9250   141.3937 </r>
       <r>    -5.9470    27.3539   144.3186 </r>
       <r>    -5.8513    23.5545   146.9884 </r>
       <r>    -5.7556    28.2063   150.0000 </r>
       <r>    -5.6599     0.0000   150.0000 </r>
       <r>    -5.5641     0.0000   150.0000 </r>
       <r>    -5.4684     0.0000   150.0000 </r>
       <r>    -5.3727     0.0000   150.0000 </r>
       <r>    -5.2770     0.0062   150.0006 </r>
       <r>    -5.1813    16.0689   151.5385 </r>
       <r>    -5.0856    19.4420   153.7948 </r>
       <r>    -4.9899     7.6201   156.0000 </r>
       <r>    -4.8942     0.0000   156.0000 </r>
       <r>    -4.7985     0.0000   156.0000 </r>
       <r>    -4.7028     0.0000   156.0000 </r>
       <r>    -4.6071     0.0000   156.0000 </r>
       <r>    -4.5113     0.0000   156.0000 </r>
       <r>    -4.4156     0.0000   156.0000 </r>
       <r>    -4.3199     0.0000   156.0000 </r>
       <r>    -4.2242     0.0000   156.0000 </r>
       <r>    -4.1285     0.0000   156.0000 </r>
       <r>    -4.0328     0.0000   156.0000 </r>
       <r>    -3.9371     0.0000   156.0000 </r>
       <r>    -3.8414     0.0000   156.0000 </r>
       <r>    -3.7457     0.0000   156.0000 </r>
       <r>    -3.6500     0.0000   156.0000 </r>
       <r>    -3.5543     0.0000   156.0000 </r>
       <r>    -3.4586     0.0000   156.0000 </r>
       <r>    -3.3628     0.0000   156.0000 </r>
       <r>    -3.2671     0.0000   156.0000 </r>
       <r>    -3.1714     0.0000   156.0000 </r>
       <r>    -3.0757     0.0000   156.0000 </r>
       <r>    -2.9800     0.0000   156.0000 </r>
       <r>    -2.8843     0.0000   156.0000 </r>
       <r>    -2.7886     0.0000   156.0000 </r>
       <r>    -2.6929     0.0000   156.0000 </r>
       <r>    -2.5972     0.0000   156.0000 </r>
       <r>    -2.5015     0.0000   156.0000 </r>
       <r>    -2.4058     0.0000   156.0000 </r>
       <r>    -2.3101     0.0000   156.0000 </r>
       <r>    -2.2143     0.0000   156.0000 </r>
       <r>    -2.1186     0.0000   156.0000 </r>
       <r>    -2.0229     0.0000   156.0000 </r>
       <r>    -1.9272    31.5795   159.0224 </r>
       <r>    -1.8315    17.2238   161.1822 </r>
       <r>    -1.7358     6.6113   162.0000 </r>
       <r>    -1.6401     0.0000   162.0000 </r>
       <r>    -1.5444     0.0000   162.0000 </r>
       <r>    -1.4487     0.0000   162.0000 </r>
       <r>    -1.3530     7.8679   162.7530 </r>
       <r>    -1.2573     6.2172   164.9622 </r>
       <r>    -1.1615     9.7932   166.0048 </r>
       <r>    -1.0658    22.7726   168.3135 </r>
       <r>    -0.9701    30.3695   171.6404 </r>
       <r>    -0.8744     1.7333   172.0000 </r>
       <r>    -0.7787    35.9836   175.4440 </r>
       <r>    -0.6830     0.0000   176.0000 </r>
       <r>    -0.5873     0.0000   176.0000 </r>
       <r>    -0.4916     0.0000   176.0000 </r>
       <r>    -0.3959     0.0000   176.0000 </r>
       <r>    -0.3002     0.0007   176.0001 </r>
       <r>    -0.2045     8.2549   176.7901 </r>
       <r>    -0.1088    11.8359   178.0000 </r>
       <r>    -0.0130     0.0000   178.0000 </r>
       <r>     0.0827     0.0002   178.0000 </r>
       <r>     0.1784    13.4299   179.2854 </r>
       <r>     0.2741    11.0214   180.4886 </r>
       <r>     0.3698     6.2155   181.1616 </r>
       <r>     0.4655    12.3842   182.5186 </r>
       <r>     0.5612    27.1081   185.4286 </r>
       <r>     0.6569     0.0000   186.0000 </r>
       <r>     0.7526     8.4364   186.8074 </r>
       <r>     0.8483    13.7543   188.5837 </r>
       <r>     0.9440    26.3138   191.6858 </r>
       <r>     1.0397    17.8407   193.8086 </r>
       <r>     1.1355    20.6893   196.0475 </r>
       <r>     1.2312    16.1083   198.1771 </r>
       <r>     1.3269    21.3049   200.6071 </r>
       <r>     1.4226    26.7443   203.7937 </r>
       <r>     1.5183    27.1712   206.7010 </r>
       <r>     1.6140    26.6816   209.6878 </r>
       <r>     1.7097    32.0010   213.6969 </r>
       <r>     1.8054    27.0113   216.9191 </r>
       <r>     1.9011    23.8055   219.6791 </r>
       <r>     1.9968    31.2480   223.3597 </r>
       <r>     2.0925     2.0802   224.0000 </r>
       <r>     2.1883     0.0000   224.0000 </r>
       <r>     2.2840     0.0000   224.0000 </r>
       <r>     2.3797     0.0000   224.0000 </r>
       <r>     2.4754     0.0000   224.0000 </r>
       <r>     2.5711     0.0000   224.0000 </r>
       <r>     2.6668     0.0000   224.0000 </r>
       <r>     2.7625     0.0000   224.0000 </r>
       <r>     2.8582     0.0000   224.0000 </r>
       <r>     2.9539     0.0000   224.0000 </r>
       <r>     3.0496     0.0000   224.0000 </r>
       <r>     3.1453     0.0000   224.0000 </r>
       <r>     3.2410     0.0000   224.0000 </r>
       <r>     3.3368     0.0000   224.0000 </r>
      </set>
     </set>
    </array>
   </total>
  </dos>
 </calculation>
 <structure name="finalpos" >
  <crystal>
   <varray name="basis" >
    <v>      14.68771148       0.00205235       0.00000000 </v>
    <v>      -7.34207832      12.71576400       0.00000000 </v>
    <v>       0.00000000       0.00000000      20.00000000 </v>
   </varray>
   <i name="volume">   3735.61082671 </i>
   <varray name="rec_basis" >
    <v>       0.06807863       0.03930858       0.00000000 </v>
    <v>      -0.00001099       0.07863620       0.00000000 </v>
    <v>       0.00000000       0.00000000       0.05000000 </v>
   </varray>
  </crystal>
  <varray name="positions" >
   <v>       0.08261182       0.54556995       0.45280821 </v>
   <v>       0.49755397       0.54550300       0.45285928 </v>
   <v>       0.49776036       0.96063389       0.45271446 </v>
   <v>       0.55450817       0.48926075       0.57298592 </v>
   <v>       0.55432398       0.07389989       0.57282099 </v>
   <v>       0.96939918       0.48903114       0.57291251 </v>
   <v>       0.26140204       0.48829953       0.51150756 </v>
   <v>       0.26147925       0.78176900       0.51143471 </v>
   <v>       0.07021171       0.53959696       0.67973586 </v>
   <v>       0.18013501       0.65455125       0.64536943 </v>
   <v>       0.18013485       0.53450279       0.64542614 </v>
   <v>       0.38899443       0.53455965       0.64538625 </v>
   <v>       0.38882859       0.86312672       0.64527900 </v>
   <v>       0.49711402       0.25290775       0.51367910 </v>
   <v>       0.50394625       0.53962864       0.67979028 </v>
   <v>       0.50899819       0.65461909       0.64541932 </v>
   <v>       0.50374660       0.97305925       0.67966079 </v>
   <v>       0.50885025       0.86313107       0.64533529 </v>
   <v>       0.55477664       0.78165907       0.51136875 </v>
   <v>       0.79050840       0.54629704       0.51372534 </v>
   <v>       0.79042126       0.25279341       0.51360590 </v>
   <v>       0.57009875       0.47276131       0.40531615 </v>
   <v>       0.57041075       0.10591504       0.40512876 </v>
   <v>       0.93737829       0.47288457       0.40522747 </v>
   <v>       0.24895825       0.62878888       0.51170609 </v>
   <v>       0.07495942       0.54183428       0.57301353 </v>
   <v>       0.13174399       0.57018444       0.51212481 </v>
   <v>       0.12911499       0.56900775       0.63978712 </v>
   <v>       0.30437853       0.73882851       0.51180093 </v>
   <v>       0.41438781       0.79423628       0.51164327 </v>
   <v>       0.46895039       0.73877106       0.51177926 </v>
   <v>       0.41435463       0.62873428       0.51171799 </v>
   <v>       0.30434733       0.57414622       0.51186258 </v>
   <v>       0.47304897       0.57017766       0.51216764 </v>
   <v>       0.47451521       0.56908167       0.63982027 </v>
   <v>       0.47307705       0.91150042       0.51204236 </v>
   <v>       0.47434482       0.91415533       0.63970430 </v>
   <v>       0.50160719       0.54195610       0.57306439 </v>
   <v>       0.50146911       0.96831286       0.57292991 </v>
   <v>       0.80295117       0.40578688       0.51329867 </v>
   <v>       0.74754874       0.29573535       0.51314113 </v>
   <v>       0.63752916       0.24037399       0.51323422 </v>
   <v>       0.58290646       0.29579413       0.51319371 </v>
   <v>       0.63757411       0.40584790       0.51335888 </v>
   <v>       0.74759559       0.46047730       0.51322695 </v>
   <v>       0.57899767       0.46445232       0.51351570 </v>
   <v>       0.55020867       0.49291712       0.45368296 </v>
   <v>       0.57895651       0.12318714       0.51334226 </v>
   <v>       0.55037540       0.06590120       0.45351419 </v>
   <v>       0.92011463       0.46433430       0.51343473 </v>
   <v>       0.97737846       0.49292788       0.45360865 </v>
  </varray>
 </structure>
</modeling>
